/*--------------------------------*- C++ -*----------------------------------*\
  =========                 |
  \\      /  F ield         | OpenFOAM: The Open Source CFD Toolbox
   \\    /   O peration     | Website:  https://openfoam.org
    \\  /    A nd           | Version:  8
     \\/     M anipulation  |
\*---------------------------------------------------------------------------*/
FoamFile
{
    version     2.0;
    format      ascii;
    class       volScalarField;
    location    "0.966377";
    object      k;
}
// * * * * * * * * * * * * * * * * * * * * * * * * * * * * * * * * * * * * * //

dimensions      [0 2 -2 0 0 0 0];

internalField   nonuniform List<scalar> 
9200
(
0.00014994136
0.00014994141
0.00014994143
0.00014994146
0.00014994152
0.00014994153
0.00014994153
0.0001499416
0.00014994166
0.00014994168
0.00014994158
0.00014994172
0.00014994172
0.00014994186
0.00014994189
0.00014994163
0.00014994184
0.00014994184
0.00014994191
0.00014994213
0.00014994215
0.00014994167
0.00014994196
0.00014994196
0.00014994204
0.00014994216
0.00014994248
0.00014994248
0.0001499417
0.00014994206
0.00014994207
0.00014994216
0.0001499423
0.0001499425
0.00014994293
0.00014994289
0.00014994172
0.00014994214
0.00014994217
0.00014994228
0.00014994243
0.00014994265
0.00014994292
0.00014994348
0.00014994339
0.00014994173
0.0001499422
0.00014994225
0.00014994238
0.00014994256
0.00014994279
0.0001499431
0.00014994344
0.00014994415
0.00014994397
0.00014994173
0.00014994223
0.00014994231
0.00014994247
0.00014994267
0.00014994293
0.00014994325
0.00014994365
0.00014994408
0.00014994495
0.00014994466
0.00014994173
0.00014994225
0.00014994235
0.00014994254
0.00014994277
0.00014994306
0.00014994341
0.00014994383
0.00014994434
0.00014994485
0.00014994588
0.00014994545
0.00014994172
0.00014994224
0.00014994236
0.00014994258
0.00014994285
0.00014994318
0.00014994356
0.00014994402
0.00014994454
0.00014994516
0.00014994575
0.00014994696
0.00014994633
0.00014994171
0.00014994222
0.00014994236
0.00014994261
0.00014994291
0.00014994327
0.0001499437
0.0001499442
0.00014994478
0.00014994542
0.00014994615
0.0001499468
0.00014994818
0.00014994731
0.00014994169
0.00014994219
0.00014994235
0.00014994262
0.00014994294
0.00014994334
0.00014994382
0.00014994438
0.00014994501
0.00014994571
0.00014994646
0.0001499473
0.000149948
0.00014994954
0.00014994837
0.00014994167
0.00014994215
0.00014994232
0.00014994261
0.00014994296
0.0001499434
0.00014994392
0.00014994453
0.00014994523
0.00014994601
0.00014994684
0.0001499477
0.00014994862
0.00014994935
0.00014995102
0.00014994949
0.00014994165
0.00014994211
0.00014994229
0.00014994259
0.00014994296
0.00014994343
0.000149944
0.00014994467
0.00014994544
0.0001499463
0.00014994723
0.00014994818
0.00014994914
0.00014995012
0.00014995083
0.0001499526
0.00014995067
0.00014994162
0.00014994206
0.00014994225
0.00014994256
0.00014994295
0.00014994345
0.00014994406
0.00014994479
0.00014994563
0.00014994659
0.00014994762
0.00014994869
0.00014994976
0.00014995078
0.00014995179
0.00014995244
0.00014995427
0.00014995188
0.0001499416
0.00014994201
0.00014994221
0.00014994252
0.00014994293
0.00014994345
0.0001499441
0.00014994488
0.0001499458
0.00014994686
0.00014994801
0.00014994923
0.00014995044
0.0001499516
0.00014995264
0.00014995362
0.00014995415
0.000149956
0.00014995308
0.00014994158
0.00014994196
0.00014994216
0.00014994248
0.0001499429
0.00014994344
0.00014994412
0.00014994495
0.00014994595
0.0001499471
0.00014994839
0.00014994976
0.00014995115
0.00014995249
0.00014995369
0.00014995471
0.0001499556
0.00014995594
0.00014995774
0.00014995427
0.00014994156
0.00014994191
0.00014994212
0.00014994244
0.00014994287
0.00014994343
0.00014994413
0.00014994501
0.00014994608
0.00014994733
0.00014994875
0.00014995029
0.00014995189
0.00014995345
0.00014995487
0.00014995606
0.00014995697
0.0001499577
0.00014995777
0.00014995947
0.0001499554
0.00014994154
0.00014994187
0.00014994207
0.0001499424
0.00014994283
0.0001499434
0.00014994413
0.00014994505
0.00014994618
0.00014994753
0.00014994908
0.0001499508
0.00014995263
0.00014995444
0.00014995614
0.00014995758
0.00014995869
0.00014995941
0.00014995989
0.00014995962
0.00014996114
0.00014995644
0.00014994152
0.00014994183
0.00014994203
0.00014994236
0.0001499428
0.00014994337
0.00014994413
0.00014994508
0.00014994627
0.0001499477
0.00014994939
0.00014995129
0.00014995335
0.00014995546
0.00014995748
0.00014995926
0.00014996066
0.00014996158
0.00014996201
0.00014996214
0.00014996145
0.00014996272
0.00014995738
0.0001499415
0.00014994179
0.00014994199
0.00014994232
0.00014994276
0.00014994335
0.00014994411
0.0001499451
0.00014994633
0.00014994785
0.00014994966
0.00014995175
0.00014995406
0.00014995649
0.00014995888
0.00014996106
0.00014996284
0.00014996409
0.00014996471
0.00014996473
0.00014996441
0.00014996322
0.00014996416
0.00014995819
0.00014994148
0.00014994175
0.00014994196
0.00014994228
0.00014994272
0.00014994331
0.0001499441
0.00014994511
0.00014994639
0.00014994798
0.00014994992
0.00014995218
0.00014995474
0.00014995749
0.0001499603
0.00014996295
0.00014996522
0.00014996691
0.00014996787
0.00014996805
0.00014996753
0.00014996666
0.00014996488
0.00014996544
0.00014995885
0.00014994147
0.00014994172
0.00014994192
0.00014994225
0.00014994269
0.00014994328
0.00014994408
0.00014994511
0.00014994643
0.0001499481
0.00014995014
0.00014995257
0.00014995538
0.00014995847
0.00014996172
0.00014996489
0.00014996775
0.00014997002
0.00014997147
0.00014997198
0.00014997158
0.00014997038
0.00014996884
0.00014996641
0.00014996652
0.00014995935
0.00014994146
0.00014994169
0.00014994189
0.00014994222
0.00014994266
0.00014994325
0.00014994406
0.00014994511
0.00014994647
0.00014994819
0.00014995034
0.00014995293
0.00014995598
0.00014995941
0.00014996311
0.00014996686
0.00014997039
0.00014997336
0.00014997548
0.00014997653
0.00014997642
0.00014997524
0.00014997323
0.00014997092
0.00014996777
0.00014996738
0.00014995967
0.00014994145
0.00014994166
0.00014994187
0.00014994219
0.00014994263
0.00014994323
0.00014994403
0.0001499451
0.00014994649
0.00014994827
0.00014995051
0.00014995326
0.00014995653
0.0001499603
0.00014996447
0.00014996883
0.00014997308
0.00014997688
0.00014997983
0.00014998163
0.00014998207
0.00014998113
0.00014997901
0.00014997603
0.00014997286
0.00014996895
0.00014996802
0.00014995982
0.00014994143
0.00014994164
0.00014994184
0.00014994216
0.0001499426
0.0001499432
0.00014994401
0.00014994509
0.00014994651
0.00014994834
0.00014995066
0.00014995355
0.00014995704
0.00014996114
0.00014996577
0.00014997075
0.00014997579
0.0001499805
0.00014998443
0.00014998717
0.00014998842
0.00014998804
0.00014998608
0.00014998283
0.00014997875
0.00014997463
0.00014996991
0.0001499684
0.00014995979
0.00014994143
0.00014994162
0.00014994182
0.00014994214
0.00014994257
0.00014994318
0.00014994399
0.00014994509
0.00014994653
0.0001499484
0.0001499508
0.00014995381
0.0001499575
0.00014996191
0.000149967
0.00014997261
0.00014997846
0.00014998413
0.00014998912
0.00014999292
0.00014999518
0.00014999567
0.00014999431
0.00014999117
0.00014998664
0.00014998134
0.00014997619
0.00014997064
0.00014996855
0.00014995958
0.00014994142
0.0001499416
0.0001499418
0.00014994212
0.00014994255
0.00014994316
0.00014994398
0.00014994508
0.00014994654
0.00014994845
0.00014995091
0.00014995404
0.00014995792
0.00014996263
0.00014996815
0.00014997438
0.00014998104
0.00014998769
0.00014999374
0.00014999858
0.0001500018
0.0001500032
0.00015000278
0.00015000053
0.00014999628
0.00014999039
0.00014998376
0.00014997753
0.00014997114
0.00014996846
0.00014995922
0.00014994141
0.00014994158
0.00014994179
0.0001499421
0.00014994254
0.00014994314
0.00014994396
0.00014994507
0.00014994655
0.00014994849
0.00014995101
0.00014995424
0.0001499583
0.00014996328
0.00014996922
0.00014997605
0.00014998351
0.00014999111
0.00014999813
0.00015000383
0.00015000758
0.00015000953
0.00015000988
0.00015000868
0.00015000588
0.00015000112
0.00014999401
0.00014998598
0.00014997863
0.00014997141
0.00014996814
0.00014995871
0.0001499414
0.00014994156
0.00014994177
0.00014994208
0.00014994252
0.00014994313
0.00014994395
0.00014994506
0.00014994655
0.00014994852
0.0001499511
0.00014995442
0.00014995864
0.00014996387
0.0001499702
0.0001499776
0.00014998582
0.0001499943
0.00015000217
0.00015000831
0.00015001245
0.00015001502
0.00015001609
0.00015001564
0.00015001367
0.00015001024
0.00015000516
0.00014999743
0.00014998797
0.00014997949
0.00014997146
0.00014996761
0.00014995807
0.00014994139
0.00014994155
0.00014994175
0.00014994206
0.0001499425
0.00014994312
0.00014994395
0.00014994506
0.00014994656
0.00014994855
0.00014995118
0.00014995458
0.00014995894
0.0001499644
0.0001499711
0.00014997904
0.00014998796
0.00014999724
0.00015000574
0.00015001212
0.00015001683
0.00015002019
0.00015002211
0.00015002245
0.00015002116
0.00015001831
0.00015001405
0.00015000845
0.00015000049
0.00014998973
0.0001499801
0.00014997129
0.00014996689
0.00014995732
0.00014994138
0.00014994153
0.00014994173
0.00014994203
0.00014994247
0.00014994309
0.00014994394
0.00014994507
0.00014994658
0.00014994858
0.00014995125
0.00014995472
0.0001499592
0.00014996488
0.00014997191
0.00014998034
0.00014998992
0.00014999988
0.00015000877
0.0001500155
0.00015002094
0.00015002521
0.0001500281
0.00015002938
0.0001500289
0.00015002666
0.00015002281
0.00015001759
0.00015001124
0.00015000301
0.00014999123
0.00014998048
0.00014997093
0.00014996602
0.00014995648
0.00014994138
0.00014994152
0.00014994171
0.00014994201
0.00014994244
0.00014994306
0.00014994392
0.00014994507
0.00014994661
0.00014994863
0.00014995131
0.00014995485
0.00014995944
0.00014996531
0.00014997265
0.00014998153
0.0001499917
0.00015000226
0.00015001137
0.00015001859
0.00015002483
0.0001500301
0.00015003408
0.00015003644
0.00015003696
0.00015003552
0.00015003221
0.00015002725
0.00015002097
0.00015001371
0.00015000507
0.00014999248
0.00014998063
0.00014997039
0.000149965
0.00014995557
0.00014994137
0.00014994151
0.0001499417
0.000149942
0.00014994241
0.00014994301
0.00014994387
0.00014994504
0.00014994661
0.00014994868
0.00014995139
0.00014995496
0.00014995965
0.00014996569
0.0001499733
0.0001499826
0.0001499933
0.00015000437
0.00015001365
0.00015002142
0.00015002851
0.00015003482
0.00015003997
0.00015004356
0.00015004525
0.00015004485
0.00015004231
0.00015003779
0.00015003162
0.0001500242
0.00015001596
0.00015000676
0.00014999349
0.00014998057
0.0001499697
0.00014996388
0.0001499546
0.00014994137
0.0001499415
0.00014994169
0.00014994198
0.0001499424
0.00014994298
0.00014994381
0.00014994498
0.00014994658
0.0001499487
0.00014995149
0.0001499551
0.00014995985
0.00014996602
0.00014997388
0.00014998355
0.00014999472
0.00015000618
0.00015001566
0.00015002401
0.00015003197
0.00015003935
0.00015004572
0.00015005064
0.00015005368
0.00015005453
0.00015005302
0.00015004922
0.00015004338
0.00015003591
0.0001500273
0.00015001803
0.00015000817
0.00014999426
0.00014998033
0.00014996889
0.00014996268
0.0001499536
0.00014994137
0.0001499415
0.00014994168
0.00014994197
0.00014994238
0.00014994295
0.00014994376
0.00014994489
0.0001499465
0.00014994867
0.00014995153
0.00014995526
0.00014996006
0.00014996634
0.0001499744
0.0001499844
0.00014999598
0.00015000774
0.00015001745
0.0001500264
0.0001500352
0.00015004364
0.00015005128
0.00015005761
0.00015006215
0.00015006445
0.00015006425
0.00015006146
0.00015005624
0.00015004895
0.0001500401
0.00015003026
0.00015001993
0.00015000933
0.00014999482
0.00014997992
0.00014996797
0.00014996142
0.00014995259
0.00014994136
0.00014994149
0.00014994168
0.00014994196
0.00014994236
0.00014994293
0.00014994373
0.00014994482
0.00014994637
0.00014994856
0.00014995149
0.00014995533
0.00014996031
0.00014996668
0.00014997489
0.00014998515
0.00014999708
0.00015000907
0.00015001904
0.00015002857
0.00015003819
0.00015004768
0.00015005659
0.0001500644
0.00015007055
0.0001500745
0.00015007586
0.00015007438
0.00015007011
0.00015006331
0.00015005447
0.00015004418
0.00015003307
0.00015002168
0.00015001031
0.00014999517
0.00014997939
0.00014996698
0.00014996013
0.00014995158
0.00014994149
0.00014994136
0.00014994167
0.00014994195
0.00014994235
0.00014994291
0.0001499437
0.00014994478
0.00014994627
0.00014994838
0.00014995134
0.00014995529
0.00014996043
0.00014996705
0.00014997539
0.00014998584
0.00014999806
0.00015001023
0.00015002046
0.00015003054
0.00015004094
0.00015005143
0.00015006161
0.00015007092
0.00015007878
0.00015008456
0.00015008772
0.00015008787
0.0001500849
0.00015007894
0.00015007042
0.00015005991
0.00015004812
0.00015003572
0.00015002328
0.00015001112
0.00014999535
0.00014997874
0.00014996594
0.00014995884
0.00014995059
0.00014994167
0.00014994149
0.00014994137
0.00014994195
0.00014994234
0.0001499429
0.00014994367
0.00014994474
0.00014994621
0.00014994823
0.00014995109
0.0001499551
0.0001499604
0.00014996723
0.00014997594
0.00014998655
0.00014999894
0.00015001123
0.00015002172
0.00015003232
0.00015004345
0.00015005491
0.00015006631
0.00015007714
0.00015008676
0.00015009449
0.00015009968
0.00015010178
0.00015010048
0.00015009576
0.00015008791
0.0001500775
0.00015006525
0.00015005191
0.00015003822
0.00015002474
0.0001500118
0.00014999537
0.00014997801
0.00014996487
0.00014995756
0.00014994963
0.00014994194
0.00014994167
0.00014994149
0.00014994137
0.00014994233
0.00014994288
0.00014994365
0.0001499447
0.00014994615
0.00014994814
0.00014995087
0.00014995473
0.00014996014
0.00014996723
0.00014997622
0.00014998731
0.00014999982
0.00015001211
0.00015002284
0.00015003391
0.00015004572
0.00015005809
0.00015007068
0.000150083
0.00015009441
0.0001501042
0.0001501116
0.00015011592
0.00015011667
0.00015011362
0.0001501069
0.00015009698
0.00015008454
0.00015007045
0.00015005554
0.00015004056
0.00015002606
0.00015001236
0.00014999526
0.00014997722
0.00014996379
0.00014995631
0.00014994871
0.00014994233
0.00014994194
0.00014994167
0.0001499415
0.00014994137
0.00014994288
0.00014994363
0.00014994467
0.0001499461
0.00014994806
0.00014995074
0.00014995441
0.00014995962
0.0001499669
0.00014997625
0.00014998771
0.00015000076
0.00015001297
0.00015002384
0.00015003534
0.00015004776
0.00015006099
0.00015007471
0.00015008847
0.00015010168
0.00015011357
0.00015012333
0.00015013013
0.00015013328
0.00015013235
0.00015012726
0.00015011829
0.00015010608
0.0001500915
0.00015007551
0.000150059
0.00015004274
0.00015002726
0.00015001281
0.00014999504
0.00014997638
0.00014996272
0.0001499551
0.00014994784
0.00014994287
0.00014994233
0.00014994195
0.00014994168
0.0001499415
0.00014994138
0.00014994362
0.00014994465
0.00014994606
0.00014994799
0.00014995062
0.00014995422
0.00014995915
0.00014996614
0.00014997584
0.00014998781
0.00015000126
0.0001500139
0.00015002484
0.00015003662
0.0001500496
0.0001500636
0.00015007839
0.00015009354
0.0001501085
0.00015012253
0.00015013473
0.00015014421
0.0001501501
0.00015015172
0.00015014877
0.00015014131
0.00015012984
0.00015011517
0.00015009832
0.00015008038
0.00015006228
0.00015004477
0.00015002833
0.00015001317
0.00014999473
0.00014997553
0.00014996168
0.00014995396
0.00014994702
0.00014994362
0.00014994287
0.00014994233
0.00014994195
0.00014994168
0.00014994151
0.00014994138
0.00014994464
0.00014994603
0.00014994793
0.00014995052
0.00014995406
0.00014995888
0.00014996548
0.00014997478
0.00014998732
0.00015000146
0.00015001443
0.00015002592
0.00015003787
0.00015005124
0.00015006596
0.00015008173
0.0001500982
0.00015011485
0.00015013099
0.00015014572
0.00015015802
0.00015016691
0.00015017151
0.00015017121
0.00015016584
0.00015015571
0.00015014149
0.00015012419
0.00015010499
0.00015008507
0.00015006538
0.00015004664
0.00015002928
0.00015001345
0.00014999434
0.00014997467
0.00014996069
0.00014995289
0.00014994627
0.00014994463
0.00014994362
0.00014994288
0.00014994234
0.00014994196
0.00014994169
0.00014994152
0.00014994139
0.00014994601
0.00014994788
0.00014995044
0.00014995391
0.00014995865
0.00014996508
0.00014997383
0.00014998589
0.00015000094
0.00015001468
0.00015002656
0.00015003925
0.00015005284
0.00015006808
0.00015008474
0.00015010244
0.00015012072
0.00015013892
0.00015015616
0.00015017142
0.00015018355
0.0001501915
0.00015019437
0.0001501917
0.00015018352
0.00015017035
0.00015015315
0.00015013309
0.00015011146
0.00015008954
0.00015006828
0.00015004836
0.00015003013
0.00015001365
0.0001499939
0.00014997384
0.00014995977
0.0001499519
0.00014994557
0.000149946
0.00014994463
0.00014994362
0.00014994288
0.00014994235
0.00014994197
0.0001499417
0.00014994153
0.0001499414
0.00014994786
0.00014995037
0.00014995379
0.00014995843
0.00014996475
0.00014997327
0.00014998459
0.0001499992
0.00015001421
0.00015002685
0.00015004008
0.0001500546
0.0001500701
0.00015008745
0.00015010628
0.00015012609
0.00015014627
0.00015016601
0.00015018427
0.00015019984
0.00015021147
0.00015021803
0.0001502187
0.00015021316
0.00015020171
0.00015018518
0.00015016476
0.00015014181
0.00015011771
0.00015009378
0.00015007099
0.00015004992
0.00015003086
0.0001500138
0.00014999346
0.00014997309
0.00014995893
0.00014995098
0.00014994493
0.00014994784
0.000149946
0.00014994464
0.00014994363
0.0001499429
0.00014994236
0.00014994198
0.00014994171
0.00014994155
0.00014994141
0.00014995033
0.0001499537
0.00014995826
0.00014996444
0.0001499728
0.00014998384
0.00014999758
0.00015001254
0.00015002641
0.00015004044
0.0001500557
0.00015007234
0.00015009002
0.00015010975
0.00015013097
0.00015015304
0.00015017522
0.00015019648
0.0001502156
0.0001502312
0.0001502419
0.00015024655
0.00015024445
0.00015023552
0.00015022035
0.0001502001
0.00015017623
0.0001501503
0.0001501237
0.00015009779
0.00015007349
0.00015005133
0.0001500315
0.00015001392
0.00014999309
0.00014997243
0.00014995817
0.00014995014
0.00014994436
0.00014995031
0.00014994784
0.00014994601
0.00014994465
0.00014994365
0.00014994291
0.00014994238
0.000149942
0.00014994173
0.00014994156
0.00014994142
0.00014995364
0.00014995813
0.00014996419
0.00014997237
0.00014998321
0.00014999669
0.00015001099
0.00015002458
0.00015003997
0.00015005616
0.0001500738
0.00015009286
0.00015011301
0.00015013539
0.00015015922
0.00015018373
0.00015020796
0.00015023069
0.00015025046
0.0001502657
0.00015027494
0.00015027707
0.00015027157
0.00015025867
0.00015023933
0.00015021502
0.00015018751
0.0001501585
0.0001501294
0.00015010153
0.00015007579
0.0001500526
0.00015003209
0.00015001406
0.00014999279
0.00014997184
0.00014995746
0.00014994936
0.00014994384
0.00014995362
0.00014995031
0.00014994786
0.00014994603
0.00014994467
0.00014994367
0.00014994293
0.0001499424
0.00014994201
0.00014994175
0.00014994158
0.00014994143
0.00014995805
0.00014996401
0.00014997203
0.00014998263
0.00014999591
0.00015001017
0.00015002289
0.0001500378
0.00015005566
0.00015007442
0.00015009478
0.00015011658
0.00015013951
0.00015016484
0.00015019154
0.00015021865
0.00015024497
0.00015026902
0.00015028909
0.00015030345
0.0001503106
0.00015030953
0.00015029995
0.0001502825
0.00015025852
0.00015022986
0.00015019852
0.00015016637
0.00015013478
0.000150105
0.00015007789
0.00015005378
0.00015003267
0.00015001424
0.00014999252
0.00014997126
0.00014995679
0.00014994868
0.00014994339
0.00014995801
0.00014995362
0.00014995033
0.00014994788
0.00014994606
0.0001499447
0.0001499437
0.00014994295
0.00014994241
0.00014994203
0.00014994177
0.0001499416
0.00014994143
0.0001499639
0.00014997177
0.00014998216
0.0001499952
0.00015000944
0.00015002207
0.00015003575
0.00015005305
0.0001500739
0.00015009562
0.00015011908
0.000150144
0.00015017007
0.00015019867
0.00015022851
0.00015025834
0.00015028666
0.0001503117
0.00015033155
0.00015034439
0.00015034876
0.00015034378
0.00015032946
0.00015030684
0.00015027779
0.0001502445
0.0001502092
0.00015017385
0.00015013982
0.00015010822
0.00015007985
0.00015005492
0.00015003326
0.00015001439
0.00014999218
0.00014997064
0.00014995618
0.00014994809
0.00014994294
0.00014996385
0.00014995801
0.00014995364
0.00014995037
0.00014994793
0.0001499461
0.00014994474
0.00014994373
0.00014994298
0.00014994244
0.00014994206
0.00014994179
0.00014994162
0.00014994145
0.00014997161
0.00014998181
0.00014999461
0.00015000872
0.00015002133
0.00015003478
0.00015005053
0.00015007073
0.0001500951
0.00015012026
0.00015014723
0.00015017569
0.00015020529
0.00015023754
0.00015027072
0.00015030322
0.0001503332
0.00015035861
0.00015037746
0.00015038804
0.000150389
0.00015037956
0.00015035988
0.00015033154
0.00015029699
0.00015025883
0.00015021948
0.00015018093
0.00015014454
0.00015011124
0.00015008173
0.00015005603
0.00015003381
0.00015001442
0.00014999165
0.00014997004
0.00014995566
0.00014994747
0.00014994254
0.00014997154
0.00014996385
0.00014995805
0.0001499537
0.00014995044
0.00014994799
0.00014994615
0.00014994478
0.00014994376
0.00014994301
0.00014994247
0.00014994208
0.0001499418
0.00014994164
0.00014994146
0.00014998159
0.00014999418
0.00015000812
0.0001500206
0.00015003388
0.00015004935
0.00015006762
0.00015009125
0.00015011977
0.00015014888
0.00015017985
0.00015021234
0.00015024591
0.00015028208
0.00015031854
0.00015035326
0.00015038402
0.00015040867
0.00015042543
0.000150433
0.00015043026
0.00015041625
0.00015039094
0.00015035639
0.00015031597
0.00015027275
0.00015022929
0.0001501876
0.00015014898
0.00015011411
0.00015008351
0.00015005704
0.00015003418
0.00015001425
0.00014999103
0.00014996952
0.00014995493
0.00014994693
0.00014994221
0.0001499815
0.00014997154
0.0001499639
0.00014995813
0.00014995379
0.00014995052
0.00014994806
0.00014994621
0.00014994482
0.00014994381
0.00014994306
0.0001499425
0.0001499421
0.00014994182
0.00014994166
0.00014994147
0.0001499939
0.00015000768
0.00015002001
0.000150033
0.00015004823
0.00015006621
0.00015008743
0.0001501151
0.00015014848
0.00015018216
0.00015021766
0.00015025471
0.00015029256
0.00015033257
0.00015037165
0.00015040722
0.00015043689
0.00015045878
0.00015047197
0.00015047606
0.00015047019
0.00015045263
0.00015042218
0.00015038119
0.00015033461
0.00015028619
0.00015023864
0.00015019393
0.00015015319
0.00015011681
0.00015008513
0.00015005779
0.00015003427
0.00015001403
0.00014999044
0.00014996851
0.00014995429
0.00014994648
0.00014994195
0.00014999378
0.0001499815
0.00014997161
0.00014996401
0.00014995826
0.00014995391
0.00014995062
0.00014994814
0.00014994627
0.00014994489
0.00014994387
0.00014994309
0.00014994252
0.00014994212
0.00014994184
0.00014994169
0.00014994148
0.00015000739
0.00015001958
0.0001500323
0.00015004716
0.00015006482
0.00015008573
0.00015011039
0.00015014278
0.0001501819
0.0001502209
0.00015026146
0.00015030343
0.0001503454
0.00015038825
0.0001504279
0.00015046125
0.00015048637
0.00015050234
0.0001505103
0.00015051122
0.0001505044
0.00015048634
0.00015045282
0.0001504057
0.00015035275
0.00015029909
0.00015024755
0.00015019993
0.00015015711
0.00015011923
0.00015008638
0.00015005815
0.00015003427
0.00015001388
0.00014998908
0.00014996759
0.00014995373
0.00014994613
0.00014994177
0.00015000727
0.00014999378
0.00014998159
0.00014997177
0.0001499642
0.00014995843
0.00014995406
0.00014995074
0.00014994823
0.00014994637
0.00014994498
0.00014994392
0.00014994312
0.00014994254
0.00014994214
0.00014994187
0.00014994172
0.0001499415
0.0001500193
0.00015003179
0.00015004631
0.00015006351
0.000150084
0.00015010834
0.00015013701
0.00015017489
0.00015022088
0.000150266
0.00015031184
0.00015035846
0.00015040314
0.00015044588
0.00015048155
0.00015050697
0.00015052236
0.00015052835
0.00015053012
0.00015052957
0.00015052592
0.00015051334
0.00015048153
0.00015042965
0.00015037032
0.00015031146
0.00015025599
0.00015020549
0.0001501606
0.00015012115
0.0001500871
0.00015005838
0.00015003438
0.00015001279
0.00014998783
0.00014996678
0.00014995329
0.00014994588
0.00014994167
0.00015001919
0.00015000727
0.0001499939
0.00014998181
0.00014997203
0.00014996444
0.00014995865
0.00014995422
0.00014995087
0.00014994838
0.0001499465
0.00014994504
0.00014994394
0.00014994313
0.00014994255
0.00014994216
0.00014994189
0.00014994175
0.00014994152
0.00015003147
0.00015004569
0.00015006247
0.00015008242
0.0001501062
0.00015013457
0.00015016787
0.0001502122
0.00015026631
0.00015031804
0.00015036847
0.00015041785
0.00015046126
0.00015049751
0.00015052144
0.00015053086
0.00015053391
0.00015053489
0.00015053504
0.00015053453
0.0001505329
0.00015052785
0.00015050602
0.0001504527
0.0001503872
0.00015032317
0.00015026379
0.00015021046
0.00015016344
0.00015012237
0.00015008766
0.0001500588
0.00015003306
0.00015001175
0.00014998669
0.00014996612
0.00014995295
0.00014994573
0.00014994165
0.00015003133
0.00015001919
0.00015000739
0.00014999418
0.00014998216
0.00014997237
0.00014996475
0.00014995888
0.00014995441
0.00014995109
0.00014994856
0.00014994658
0.00014994507
0.00014994395
0.00014994314
0.00014994257
0.00014994219
0.00014994192
0.00014994179
0.00014994154
0.0001500453
0.00015006171
0.00015008115
0.00015010429
0.00015013191
0.00015016504
0.00015020365
0.00015025557
0.00015031884
0.00015037656
0.00015042878
0.00015047573
0.00015050974
0.00015052887
0.00015053425
0.00015053591
0.0001505365
0.00015053666
0.00015053653
0.00015053611
0.0001505352
0.00015053277
0.00015052248
0.00015047433
0.00015040312
0.00015033395
0.00015027078
0.00015021459
0.00015016535
0.0001501234
0.00015008849
0.00015005702
0.00015003176
0.0001500108
0.00014998573
0.0001499656
0.00014995274
0.00014994569
0.00014994172
0.00015004513
0.00015003133
0.0001500193
0.00015000768
0.00014999461
0.00014998263
0.0001499728
0.00014996508
0.00014995915
0.00014995473
0.00014995134
0.00014994867
0.00014994661
0.00014994507
0.00014994395
0.00014994316
0.0001499426
0.00014994222
0.00014994196
0.00014994183
0.00014994156
0.00015006124
0.00015008023
0.00015010275
0.00015012961
0.00015016173
0.00015020041
0.00015024515
0.0001503057
0.00015037801
0.00015043832
0.00015048567
0.00015051993
0.00015053247
0.00015053579
0.00015053689
0.0001505374
0.00015053764
0.00015053764
0.0001505374
0.00015053692
0.00015053618
0.00015053471
0.0001505295
0.00015049359
0.00015041759
0.00015034361
0.0001502767
0.00015021754
0.00015016702
0.00015012481
0.00015008606
0.00015005524
0.00015003057
0.00015001
0.00014998496
0.00014996523
0.00014995264
0.00014994576
0.00014994189
0.00015006104
0.00015004513
0.00015003147
0.00015001958
0.00015000812
0.0001499952
0.00014998321
0.00014997327
0.00014996548
0.00014995962
0.0001499551
0.00014995149
0.0001499487
0.00014994661
0.00014994506
0.00014994396
0.00014994318
0.00014994263
0.00014994225
0.00014994199
0.00014994187
0.00014994158
0.00015007965
0.00015010163
0.00015012775
0.0001501589
0.00015019636
0.00015024147
0.00015029314
0.00015036245
0.00015044045
0.00015049466
0.00015052564
0.00015053444
0.00015053666
0.00015053758
0.00015053818
0.00015053855
0.00015053869
0.00015053857
0.0001505382
0.0001505376
0.0001505368
0.00015053565
0.00015053243
0.00015050878
0.00015043028
0.00015035189
0.00015028108
0.00015022015
0.00015016925
0.00015012146
0.00015008358
0.00015005365
0.00015002956
0.00015000933
0.00014998438
0.00014996503
0.00014995267
0.00014994594
0.00014994213
0.00015007941
0.00015006104
0.0001500453
0.00015003179
0.00015002001
0.00015000872
0.00014999592
0.00014998384
0.00014997383
0.00014996614
0.00014996014
0.00014995529
0.00014995153
0.00014994868
0.00014994658
0.00014994506
0.00014994398
0.0001499432
0.00014994266
0.00014994228
0.00014994203
0.00014994191
0.0001499416
0.00015010094
0.0001501264
0.00015015669
0.00015019287
0.00015023658
0.00015028897
0.00015034776
0.00015042346
0.00015049683
0.00015052931
0.00015053565
0.00015053727
0.00015053818
0.00015053892
0.00015053947
0.00015053978
0.00015053981
0.00015053955
0.00015053901
0.00015053825
0.00015053733
0.00015053621
0.00015053383
0.00015051773
0.00015044075
0.00015035803
0.00015028495
0.00015022355
0.00015016464
0.00015011801
0.00015008141
0.00015005228
0.00015002871
0.00015000883
0.00014998402
0.00014996499
0.00014995283
0.00014994624
0.00014994246
0.00015010065
0.00015007941
0.00015006124
0.00015004569
0.0001500323
0.0001500206
0.00015000944
0.00014999669
0.00014998459
0.00014997478
0.0001499669
0.0001499604
0.00014995533
0.00014995149
0.00014994863
0.00014994656
0.00014994507
0.00014994399
0.00014994323
0.00014994269
0.00014994232
0.00014994207
0.00014994196
0.00014994162
0.00015012556
0.00015015505
0.0001501902
0.00015023233
0.00015028314
0.00015034313
0.00015040736
0.00015048184
0.00015052907
0.00015053637
0.00015053777
0.00015053876
0.00015053964
0.00015054039
0.0001505409
0.00015054112
0.00015054101
0.00015054057
0.00015053984
0.0001505389
0.00015053781
0.00015053662
0.00015053459
0.00015052091
0.00015044763
0.00015036317
0.00015028985
0.00015021723
0.00015015988
0.00015011505
0.00015007954
0.00015005112
0.00015002804
0.00015000848
0.00014998387
0.00014996513
0.00014995314
0.00014994665
0.00014994286
0.00015012521
0.00015010065
0.00015007965
0.00015006171
0.00015004631
0.000150033
0.00015002133
0.00015001017
0.00014999758
0.00014998589
0.00014997584
0.00014996723
0.00014996043
0.00014995526
0.00014995139
0.00014994858
0.00014994655
0.00014994508
0.00014994401
0.00014994325
0.00014994272
0.00014994236
0.00014994212
0.00014994201
0.00014994165
0.00015015404
0.00015018825
0.00015022908
0.00015027808
0.00015033634
0.00015040259
0.0001504666
0.00015052376
0.00015053634
0.00015053823
0.00015053932
0.00015054036
0.0001505413
0.00015054205
0.0001505425
0.00015054259
0.00015054229
0.00015054164
0.00015054069
0.00015053953
0.00015053827
0.00015053696
0.00015053502
0.00015052134
0.00015045192
0.00015036939
0.00015028131
0.00015021068
0.00015015586
0.00015011249
0.00015007795
0.00015005019
0.00015002754
0.0001500083
0.00014998397
0.00014996546
0.00014995357
0.00014994716
0.00014994332
0.00015015362
0.00015012521
0.00015010094
0.00015008023
0.00015006247
0.00015004716
0.00015003388
0.00015002207
0.00015001099
0.0001499992
0.00014998732
0.00014997625
0.00014996723
0.00014996031
0.0001499551
0.00014995131
0.00014994855
0.00014994655
0.00014994509
0.00014994403
0.00014994328
0.00014994276
0.0001499424
0.00014994216
0.00014994206
0.00014994167
0.00015018703
0.00015022674
0.00015027415
0.00015033047
0.00015039509
0.0001504624