/*--------------------------------*- C++ -*----------------------------------*\
  =========                 |
  \\      /  F ield         | OpenFOAM: The Open Source CFD Toolbox
   \\    /   O peration     | Website:  https://openfoam.org
    \\  /    A nd           | Version:  8
     \\/     M anipulation  |
\*---------------------------------------------------------------------------*/
FoamFile
{
    version     2.0;
    format      ascii;
    class       volScalarField;
    location    "0.966377";
    object      k_0;
}
// * * * * * * * * * * * * * * * * * * * * * * * * * * * * * * * * * * * * * //

dimensions      [0 2 -2 0 0 0 0];

internalField   nonuniform List<scalar> 
9200
(
0.00014994742
0.00014994746
0.00014994748
0.00014994751
0.00014994756
0.00014994757
0.00014994756
0.00014994763
0.00014994768
0.0001499477
0.00014994761
0.00014994774
0.00014994773
0.00014994785
0.00014994787
0.00014994765
0.00014994785
0.00014994784
0.0001499479
0.00014994808
0.0001499481
0.00014994768
0.00014994795
0.00014994794
0.00014994801
0.00014994812
0.00014994839
0.00014994839
0.00014994771
0.00014994804
0.00014994804
0.00014994812
0.00014994824
0.0001499484
0.00014994878
0.00014994874
0.00014994773
0.00014994811
0.00014994813
0.00014994822
0.00014994835
0.00014994854
0.00014994877
0.00014994925
0.00014994917
0.00014994773
0.00014994816
0.0001499482
0.00014994832
0.00014994846
0.00014994866
0.00014994892
0.00014994922
0.00014994984
0.00014994968
0.00014994773
0.00014994819
0.00014994825
0.00014994839
0.00014994857
0.00014994878
0.00014994906
0.00014994941
0.00014994977
0.00014995053
0.00014995027
0.00014994773
0.0001499482
0.00014994829
0.00014994845
0.00014994865
0.0001499489
0.0001499492
0.00014994956
0.00014995
0.00014995044
0.00014995134
0.00014995095
0.00014994773
0.0001499482
0.0001499483
0.00014994849
0.00014994872
0.000149949
0.00014994933
0.00014994973
0.00014995018
0.00014995072
0.00014995123
0.00014995228
0.00014995172
0.00014994772
0.00014994818
0.0001499483
0.00014994851
0.00014994877
0.00014994908
0.00014994945
0.00014994989
0.00014995038
0.00014995094
0.00014995157
0.00014995214
0.00014995335
0.00014995257
0.0001499477
0.00014994815
0.00014994829
0.00014994852
0.0001499488
0.00014994915
0.00014994956
0.00014995004
0.00014995058
0.00014995119
0.00014995184
0.00014995257
0.00014995318
0.00014995453
0.00014995349
0.00014994769
0.00014994812
0.00014994827
0.00014994851
0.00014994882
0.00014994919
0.00014994964
0.00014995017
0.00014995078
0.00014995145
0.00014995216
0.00014995292
0.00014995372
0.00014995435
0.00014995582
0.00014995447
0.00014994767
0.00014994808
0.00014994824
0.00014994849
0.00014994882
0.00014994922
0.00014994971
0.00014995029
0.00014995096
0.0001499517
0.0001499525
0.00014995333
0.00014995416
0.00014995502
0.00014995565
0.00014995721
0.0001499555
0.00014994765
0.00014994804
0.0001499482
0.00014994847
0.00014994881
0.00014994923
0.00014994976
0.00014995039
0.00014995112
0.00014995195
0.00014995284
0.00014995377
0.0001499547
0.0001499556
0.00014995647
0.00014995705
0.00014995868
0.00014995655
0.00014994763
0.00014994799
0.00014994816
0.00014994844
0.00014994879
0.00014994924
0.00014994979
0.00014995047
0.00014995127
0.00014995218
0.00014995318
0.00014995423
0.00014995529
0.00014995629
0.00014995721
0.00014995807
0.00014995854
0.00014996019
0.0001499576
0.00014994761
0.00014994795
0.00014994812
0.0001499484
0.00014994876
0.00014994923
0.00014994981
0.00014995053
0.00014995139
0.00014995239
0.0001499535
0.00014995469
0.0001499559
0.00014995706
0.00014995812
0.00014995901
0.0001499598
0.00014996011
0.00014996172
0.00014995864
0.00014994759
0.0001499479
0.00014994808
0.00014994836
0.00014994873
0.00014994921
0.00014994982
0.00014995058
0.0001499515
0.00014995258
0.00014995381
0.00014995514
0.00014995653
0.00014995788
0.00014995912
0.00014996017
0.00014996098
0.00014996163
0.00014996172
0.00014996324
0.00014995963
0.00014994757
0.00014994786
0.00014994804
0.00014994832
0.0001499487
0.00014994919
0.00014994982
0.00014995061
0.00014995159
0.00014995275
0.00014995409
0.00014995558
0.00014995716
0.00014995874
0.00014996022
0.00014996148
0.00014996246
0.00014996311
0.00014996355
0.00014996334
0.00014996472
0.00014996055
0.00014994755
0.00014994783
0.00014994801
0.00014994829
0.00014994866
0.00014994916
0.00014994981
0.00014995063
0.00014995166
0.0001499529
0.00014995435
0.000149956
0.00014995778
0.00014995961
0.00014996137
0.00014996292
0.00014996415
0.00014996498
0.00014996538
0.00014996552
0.00014996495
0.00014996611
0.00014996139
0.00014994754
0.00014994779
0.00014994797
0.00014994825
0.00014994863
0.00014994914
0.0001499498
0.00014995065
0.00014995171
0.00014995302
0.00014995459
0.00014995639
0.00014995838
0.00014996048
0.00014996256
0.00014996446
0.00014996603
0.00014996713
0.0001499677
0.00014996776
0.00014996751
0.0001499665
0.0001499674
0.00014996211
0.00014994753
0.00014994776
0.00014994794
0.00014994822
0.0001499486
0.00014994911
0.00014994978
0.00014995065
0.00014995176
0.00014995313
0.0001499548
0.00014995675
0.00014995896
0.00014996134
0.00014996377
0.00014996608
0.00014996807
0.00014996956
0.00014997042
0.00014997062
0.00014997021
0.00014996948
0.00014996798
0.00014996854
0.0001499627
0.00014994751
0.00014994773
0.00014994791
0.00014994819
0.00014994857
0.00014994908
0.00014994976
0.00014995065
0.00014995179
0.00014995323
0.00014995499
0.00014995708
0.0001499595
0.00014996218
0.00014996498
0.00014996774
0.00014997023
0.00014997222
0.00014997352
0.00014997401
0.0001499737
0.00014997271
0.00014997141
0.00014996933
0.00014996951
0.00014996315
0.0001499475
0.00014994771
0.00014994788
0.00014994816
0.00014994854
0.00014994905
0.00014994974
0.00014995065
0.00014995182
0.00014995331
0.00014995515
0.00014995739
0.00014996001
0.00014996298
0.00014996617
0.00014996943
0.00014997249
0.00014997509
0.00014997696
0.00014997791
0.00014997787
0.0001499769
0.0001499752
0.00014997324
0.00014997054
0.00014997029
0.00014996345
0.00014994749
0.00014994768
0.00014994786
0.00014994813
0.00014994851
0.00014994903
0.00014994972
0.00014995064
0.00014995184
0.00014995337
0.0001499553
0.00014995766
0.00014996048
0.00014996373
0.00014996733
0.0001499711
0.00014997479
0.0001499781
0.0001499807
0.0001499823
0.00014998273
0.00014998198
0.0001499802
0.00014997767
0.00014997495
0.00014997159
0.00014997087
0.00014996359
0.00014994748
0.00014994766
0.00014994784
0.00014994811
0.00014994849
0.000149949
0.0001499497
0.00014995063
0.00014995185
0.00014995343
0.00014995542
0.0001499579
0.00014996091
0.00014996444
0.00014996843
0.00014997274
0.00014997711
0.00014998121
0.00014998466
0.00014998709
0.00014998823
0.00014998795
0.0001499863
0.00014998354
0.00014998006
0.00014997652
0.00014997245
0.00014997123
0.00014996358
0.00014994748
0.00014994764
0.00014994782
0.00014994809
0.00014994846
0.00014994898
0.00014994969
0.00014995063
0.00014995186
0.00014995347
0.00014995553
0.00014995812
0.0001499613
0.00014996509
0.00014996948
0.00014997432
0.00014997939
0.00014998434
0.00014998872
0.00014999211
0.00014999415
0.00014999463
0.00014999347
0.00014999077
0.00014998689
0.00014998235
0.00014997791
0.00014997312
0.00014997139
0.00014996342
0.00014994747
0.00014994763
0.0001499478
0.00014994807
0.00014994845
0.00014994896
0.00014994967
0.00014995062
0.00014995187
0.00014995351
0.00014995563
0.00014995832
0.00014996165
0.0001499657
0.00014997045
0.00014997583
0.00014998161
0.00014998742
0.00014999277
0.00014999712
0.00015000006
0.00015000142
0.0001500011
0.00014999906
0.0001499953
0.00014999019
0.00014998449
0.0001499791
0.00014997359
0.00014997133
0.00014996313
0.00014994746
0.00014994761
0.00014994779
0.00014994806
0.00014994843
0.00014994895
0.00014994965
0.00014995061
0.00014995188
0.00014995355
0.00014995571
0.00014995849
0.00014996197
0.00014996625
0.00014997136
0.00014997726
0.00014998373
0.00014999039
0.00014999665
0.00015000185
0.00015000541
0.00015000727
0.00015000765
0.00015000662
0.00015000411
0.00014999971
0.00014999339
0.00014998646
0.00014998009
0.00014997385
0.00014997107
0.0001499627
0.00014994745
0.00014994759
0.00014994777
0.00014994804
0.00014994842
0.00014994894
0.00014994965
0.0001499506
0.00014995188
0.00014995357
0.00014995579
0.00014995864
0.00014996225
0.00014996675
0.0001499722
0.00014997858
0.00014998573
0.00014999319
0.00015000025
0.00015000599
0.00015000982
0.00015001217
0.00015001318
0.00015001283
0.00015001115
0.00015000814
0.00015000354
0.00014999644
0.00014998823
0.00014998087
0.00014997391
0.00014997063
0.00014996215
0.00014994745
0.00014994758
0.00014994775
0.00014994802
0.0001499484
0.00014994893
0.00014994964
0.0001499506
0.00014995188
0.0001499536
0.00014995585
0.00014995877
0.00014996251
0.0001499672
0.00014997296
0.00014997981
0.00014998758
0.00014999579
0.00015000351
0.00015000944
0.00015001369
0.00015001671
0.00015001844
0.0001500188
0.00015001773
0.00015001528
0.00015001158
0.00015000661
0.00014999927
0.00014998979
0.00014998144
0.00014997379
0.00014997003
0.00014996151
0.00014994744
0.00014994757
0.00014994773
0.00014994799
0.00014994837
0.00014994891
0.00014994964
0.00014995061
0.0001499519
0.00014995362
0.0001499559
0.00014995889
0.00014996273
0.0001499676
0.00014997365
0.00014998093
0.00014998928
0.00014999814
0.00015000631
0.00015001244
0.00015001729
0.00015002108
0.00015002367
0.00015002485
0.00015002449
0.00015002259
0.00015001927
0.00015001474
0.00015000917
0.00015000167
0.00014999114
0.0001499818
0.00014997349
0.00014996928
0.00014996079
0.00014994744
0.00014994756
0.00014994772
0.00014994798
0.00014994834
0.00014994887
0.00014994961
0.00014995061
0.00014995192
0.00014995365
0.00014995596
0.00014995899
0.00014996293
0.00014996796
0.00014997427
0.00014998194
0.00014999083
0.00015000024
0.00015000867
0.00015001515
0.00015002066
0.00015002532
0.00015002886
0.000150031
0.00015003152
0.00015003033
0.00015002749
0.0001500232
0.00015001773
0.0001500114
0.00015000363
0.00014999227
0.00014998196
0.00014997304
0.0001499684
0.00014996
0.00014994743
0.00014994755
0.00014994771
0.00014994796
0.00014994832
0.00014994884
0.00014994957
0.00014995058
0.00014995193
0.0001499537
0.00014995602
0.00014995909
0.0001499631
0.00014996828
0.00014997482
0.00014998286
0.00014999223
0.00015000213
0.0001500107
0.00015001761
0.00015002386
0.00015002942
0.00015003398
0.00015003719
0.00015003875
0.00015003847
0.00015003632
0.00015003243
0.00015002707
0.00015002061
0.00015001341
0.00015000522
0.00014999318
0.00014998193
0.00014997246
0.00014996743
0.00014995916
0.00014994743
0.00014994754
0.0001499477
0.00014994795
0.00014994831
0.00014994881
0.00014994952
0.00014995052
0.0001499519
0.00014995373
0.00014995611
0.0001499592
0.00014996327
0.00014996856
0.00014997532
0.00014998368
0.00014999348
0.0001500038
0.00015001248
0.00015001987
0.00015002686
0.00015003335
0.00015003898
0.00015004335
0.00015004609
0.00015004691
0.00015004567
0.00015004243
0.00015003738
0.00015003088
0.00015002337
0.00015001526
0.00015000653
0.00014999389
0.00014998174
0.00014997176
0.00014996638
0.0001499583
0.00014994743
0.00014994754
0.00014994769
0.00014994794
0.00014994829
0.00014994879
0.00014994948
0.00014995045
0.00014995182
0.00014995369
0.00014995615
0.00014995934
0.00014996345
0.00014996883
0.00014997576
0.00014998441
0.00014999458
0.00015000524
0.00015001405
0.00015002193
0.00015002966
0.00015003707
0.00015004379
0.0001500494
0.00015005344
0.00015005555
0.00015005546
0.00015005311
0.00015004862
0.00015004231
0.0001500346
0.000150026
0.00015001696
0.00015000761
0.00014999441
0.00014998141
0.00014997097
0.00014996529
0.00014995742
0.00014994742
0.00014994753
0.00014994769
0.00014994793
0.00014994828
0.00014994877
0.00014994945
0.00014995039
0.00014995172
0.00014995359
0.00014995611
0.00014995941
0.00014996366
0.00014996911
0.00014997616
0.00014998506
0.00014999556
0.00015000645
0.00015001544
0.00015002381
0.00015003224
0.00015004056
0.00015004839
0.00015005528
0.00015006073
0.00015006428
0.00015006557
0.00015006438
0.00015006074
0.00015005487
0.00015004719
0.00015003822
0.0001500285
0.00015001853
0.00015000851
0.00014999474
0.00014998095
0.00014997011
0.00014996416
0.00014995654
0.00014994753
0.00014994742
0.00014994768
0.00014994792
0.00014994827
0.00014994875
0.00014994942
0.00014995035
0.00014995163
0.00014995343
0.00014995597
0.00014995937
0.00014996378
0.00014996944
0.00014997659
0.00014998565
0.00014999642
0.0001500075
0.00015001668
0.00015002551
0.00015003462
0.00015004381
0.00015005274
0.00015006093
0.00015006787
0.00015007301
0.00015007588
0.00015007613
0.00015007364
0.00015006853
0.00015006115
0.00015005201
0.00015004172
0.00015003087
0.00015001996
0.00015000926
0.00014999492
0.0001499804
0.00014996921
0.00014996302
0.00014995567
0.00014994768
0.00014994753
0.00014994743
0.00014994792
0.00014994826
0.00014994873
0.0001499494
0.00014995032
0.00014995158
0.00014995331
0.00014995575
0.00014995918
0.00014996374
0.00014996961
0.00014997708
0.00014998626
0.00014999719
0.00015000841
0.00015001777
0.00015002705
0.00015003678
0.00015004681
0.0001500568
0.00015006631
0.00015007478
0.00015008163
0.00015008627
0.00015008822
0.00015008721
0.00015008321
0.00015007645
0.00015006742
0.00015005675
0.00015004509
0.0001500331
0.00015002127
0.00015000988
0.00014999496
0.00014997977
0.00014996828
0.0001499619
0.00014995483
0.00014994792
0.00014994768
0.00014994753
0.00014994743
0.00014994825
0.00014994872
0.00014994938
0.00014995028
0.00014995153
0.00014995323
0.00014995557
0.00014995887
0.0001499635
0.00014996958
0.00014997734
0.00014998694
0.00014999796
0.0001500092
0.00015001874
0.00015002842
0.00015003874
0.00015004956
0.00015006058
0.00015007138
0.0001500814
0.00015009003
0.00015009661
0.00015010051
0.0001501013
0.00015009878
0.00015009303
0.00015008445
0.00015007366
0.00015006137
0.00015004832
0.00015003519
0.00015002246
0.00015001039
0.00014999488
0.00014997909
0.00014996734
0.00014996079
0.00014995402
0.00014994825
0.00014994792
0.00014994768
0.00014994754
0.00014994743
0.00014994872
0.00014994936
0.00014995026
0.00014995148
0.00014995317
0.00014995546
0.0001499586
0.00014996305
0.00014996927
0.00014997734
0.00014998732
0.00014999882
0.00015000997
0.00015001961
0.00015002965
0.00015004051
0.00015005206
0.00015006405
0.0001500761
0.00015008768
0.00015009814
0.00015010677
0.00015011284
0.00015011574
0.00015011509
0.00015011079
0.00015010308
0.0001500925
0.00015007982
0.00015006585
0.00015005141
0.00015003714
0.00015002353
0.00015001081
0.0001499947
0.00014997836
0.0001499664
0.00014995973
0.00014995325
0.00014994871
0.00014994825
0.00014994792
0.00014994769
0.00014994754
0.00014994744
0.00014994936
0.00014995024
0.00014995145
0.0001499531
0.00014995536
0.00014995844
0.00014996266
0.00014996863
0.00014997694
0.00014998736
0.00014999931
0.00015001081
0.00015002046
0.00015003076
0.00015004209
0.00015005432
0.00015006723
0.00015008048
0.00015009357
0.00015010588
0.00015011664
0.00015012504
0.00015013033
0.00015013192
0.00015012952
0.00015012317
0.00015011328
0.00015010054
0.00015008587
0.00015007019
0.00015005433
0.00015003895
0.00015002449
0.00015001115
0.00014999445
0.00014997762
0.00014996548
0.00014995872
0.00014995253
0.00014994935
0.00014994871
0.00014994825
0.00014994792
0.00014994769
0.00014994755
0.00014994744
0.00014995023
0.00014995142
0.00014995305
0.00014995527
0.0001499583
0.00014996243
0.00014996806
0.00014997603
0.00014998688
0.00014999943
0.00015001132
0.00015002142
0.00015003183
0.00015004351
0.00015005635
0.00015007011
0.00015008449
0.00015009906
0.00015011319
0.00015012612
0.00015013698
0.00015014489
0.00015014908
0.00015014902
0.00015014453
0.00015013586
0.00015012357
0.00015010853
0.00015009179
0.00015007436
0.00015005709
0.00015004063
0.00015002536
0.00015001141
0.00014999412
0.00014997686
0.00014996459
0.00014995776
0.00014995186
0.00014995022
0.00014994935
0.00014994872
0.00014994826
0.00014994793
0.0001499477
0.00014994756
0.00014994745
0.0001499514
0.00014995301
0.0001499552
0.00014995817
0.00014996223
0.00014996773
0.00014997522
0.00014998564
0.00014999891
0.0001500115
0.00015002201
0.00015003304
0.00015004487
0.00015005817
0.0001500727
0.00015008815
0.00015010411
0.00015012002
0.00015013513
0.00015014854
0.00015015927
0.00015016638
0.0001501691
0.000150167
0.00015016007
0.00015014877
0.00015013388
0.00015011642
0.00015009754
0.00015007834
0.00015005969
0.00015004217
0.00015002612
0.0001500116
0.00014999374
0.00014997612
0.00014996377
0.00014995688
0.00014995124
0.0001499514
0.00014995022
0.00014994936
0.00014994872
0.00014994827
0.00014994794
0.00014994771
0.00014994757
0.00014994745
0.00014995299
0.00014995514
0.00014995807
0.00014996204
0.00014996745
0.00014997476
0.00014998452
0.00014999736
0.00015001102
0.00015002223
0.00015003382
0.00015004641
0.0001500599
0.00015007504
0.00015009146
0.00015010873
0.00015012636
0.00015014362
0.00015015961
0.00015017331
0.00015018362
0.00015018956
0.00015019039
0.00015018582
0.00015017608
0.00015016184
0.00015014415
0.00015012416
0.0001501031
0.00015008213
0.00015006211
0.00015004358
0.00015002679
0.00015001174
0.00014999334
0.00014997543
0.00014996302
0.00014995607
0.00014995067
0.00014995298
0.0001499514
0.00014995023
0.00014994937
0.00014994873
0.00014994828
0.00014994795
0.00014994772
0.00014994758
0.00014994746
0.00014995511
0.00014995799
0.00014996189
0.00014996719
0.00014997435
0.00014998389
0.00014999594
0.00015000952
0.00015002179
0.00015003406
0.00015004744
0.00015006186
0.00015007724
0.00015009444
0.00015011293
0.00015013218
0.00015015153
0.00015017012
0.00015018688
0.00015020064
0.00015021017
0.00015021449
0.00015021295
0.00015020545
0.00015019248
0.00015017501
0.00015015431
0.00015013171
0.00015010843
0.00015008571
0.00015006436
0.00015004485
0.00015002736
0.00015001183
0.00014999297
0.00014997484
0.00014996235
0.00014995531
0.00014995016
0.0001499551
0.00014995298
0.0001499514
0.00014995024
0.00014994938
0.00014994875
0.00014994829
0.00014994796
0.00014994773
0.00014994759
0.00014994747
0.00014995794
0.00014996178
0.00014996697
0.00014997398
0.00014998334
0.00014999517
0.00015000813
0.00015002018
0.00015003359
0.00015004775
0.00015006321
0.0001500797
0.00015009723
0.00015011673
0.00015013749
0.00015015885
0.00015017999
0.00015019986
0.00015021722
0.0001502307
0.00015023901
0.00015024117
0.00015023671
0.00015022579
0.00015020919
0.00015018819
0.0001501643
0.00015013901
0.00015011352
0.00015008906
0.00015006643
0.00015004599
0.00015002787
0.00015001194
0.0001499927
0.00014997433
0.00014996173
0.00014995462
0.0001499497
0.00014995792
0.0001499551
0.00014995299
0.00014995142
0.00014995026
0.0001499494
0.00014994877
0.00014994831
0.00014994798
0.00014994775
0.00014994761
0.00014994748
0.00014996172
0.00014996682
0.00014997368
0.00014998283
0.00014999448
0.0001500074
0.00015001871
0.00015003171
0.00015004724
0.00015006364
0.00015008148
0.00015010032
0.00015012027
0.00015014232
0.00015016556
0.00015018916
0.00015021213
0.00015023319
0.00015025086
0.00015026362
0.00015027016
0.00015026957
0.0001502616
0.00015024673
0.00015022611
0.00015020131
0.00015017407
0.00015014601
0.00015011833
0.00015009218
0.00015006831
0.00015004703
0.00015002837
0.0001500121
0.00014999249
0.00014997384
0.00014996113
0.00014995399
0.00014994929
0.00014996168
0.00014995792
0.00014995511
0.00014995301
0.00014995145
0.00014995028
0.00014994942
0.00014994879
0.00014994832
0.00014994799
0.00014994777
0.00014994763
0.00014994748
0.00014996672
0.00014997346
0.00014998242
0.00014999384
0.00015000672
0.00015001803
0.00015002994
0.00015004499
0.00015006308
0.00015008207
0.00015010263
0.00015012414
0.00015014679
0.00015017167
0.00015019763
0.00015022362
0.00015024838
0.00015027038
0.00015028793
0.00015029943
0.00015030358
0.0001502996
0.0001502875
0.00015026815
0.00015024311
0.00015021427
0.00015018356
0.00015015269
0.00015012285
0.00015009505
0.00015007004
0.00015004802
0.00015002889
0.00015001227
0.00014999225
0.00014997329
0.00014996057
0.00014995345
0.00014994888
0.00014996668
0.00014996168
0.00014995794
0.00014995514
0.00014995305
0.00014995148
0.00014995032
0.00014994945
0.00014994881
0.00014994834
0.00014994802
0.00014994779
0.00014994764
0.00014994749
0.00014997333
0.00014998212
0.00014999331
0.00015000605
0.00015001738
0.00015002912
0.00015004281
0.00015006038
0.00015008149
0.00015010346
0.00015012711
0.00015015163
0.00015017733
0.00015020537
0.00015023426
0.00015026266
0.00015028899
0.00015031146
0.00015032829
0.00015033789
0.00015033903
0.00015033107
0.00015031426
0.00015028992
0.00015026009
0.00015022698
0.0001501927
0.00015015901
0.00015012706
0.00015009772
0.00015007169
0.00015004901
0.00015002943
0.00015001234
0.00014999181
0.00014997273
0.00014996008
0.00014995288
0.00014994852
0.00014997327
0.00014996668
0.00014996172
0.00014995799
0.0001499552
0.0001499531
0.00014995153
0.00014995035
0.00014994948
0.00014994884
0.00014994837
0.00014994804
0.0001499478
0.00014994766
0.0001499475
0.00014998193
0.00014999293
0.00015000549
0.00015001673
0.00015002833
0.00015004181
0.00015005768
0.00015007822
0.0001501029
0.0001501283
0.00015015543
0.00015018338
0.00015021253
0.00015024403
0.0001502759
0.00015030644
0.00015033374
0.00015035585
0.00015037107
0.00015037808
0.00015037582
0.0001503636
0.00015034166
0.00015031185
0.0001502769
0.00015023935
0.00015020144
0.00015016495
0.00015013099
0.00015010026
0.0001500733
0.00015004998
0.00015002983
0.0001500122
0.00014999123
0.00014997224
0.00014995942
0.00014995239
0.00014994821
0.00014998185
0.00014997327
0.00014996672
0.00014996178
0.00014995807
0.00014995527
0.00014995317
0.00014995158
0.00014995039
0.00014994952
0.00014994887
0.0001499484
0.00014994806
0.00014994782
0.00014994768
0.00014994751
0.00014999269
0.00015000507
0.00015001621
0.00015002756
0.00015004083
0.00015005649
0.00015007491
0.00015009894
0.00015012778
0.00015015714
0.00015018822
0.0001502201
0.00015025304
0.00015028806
0.00015032255
0.00015035432
0.00015038121
0.00015040141
0.00015041379
0.00015041771
0.00015041231
0.00015039634
0.00015036938
0.00015033378
0.00015029341
0.00015025129
0.00015020975
0.00015017056
0.00015013474
0.00015010271
0.00015007483
0.00015005074
0.00015002991
0.00015001195
0.00014999067
0.00014997133
0.00014995884
0.00014995197
0.00014994797
0.00014999258
0.00014998185
0.00014997333
0.00014996682
0.00014996189
0.00014995817
0.00014995536
0.00014995323
0.00014995163
0.00014995045
0.00014994957
0.00014994891
0.00014994842
0.00014994807
0.00014994784
0.00014994771
0.00014994753
0.00015000481
0.00015001583
0.00015002695
0.0001500399
0.00015005527
0.00015007346
0.00015009486
0.00015012297
0.0001501567
0.00015019068
0.00015022624
0.00015026243
0.00015029921
0.00015033719
0.00015037288
0.00015040359
0.00015042729
0.00015044296
0.00015045093
0.00015045189
0.00015044509
0.0001504276
0.00015039689
0.00015035551
0.00015030951
0.00015026274
0.00015021766
0.0001501759
0.00015013831
0.000150105
0.00015007606
0.00015005106
0.00015002984
0.00015001177
0.00014998944
0.00014997051
0.00014995834
0.00014995165
0.00014994779
0.00015000469
0.00014999258
0.00014998193
0.00014997346
0.00014996697
0.00014996204
0.0001499583
0.00014995546
0.00014995331
0.00014995172
0.00014995052
0.00014994961
0.00014994893
0.00014994843
0.00014994809
0.00014994786
0.00014994773
0.00014994754
0.00015001559
0.0001500265
0.00015003915
0.00015005412
0.00015007195
0.00015009311
0.00015011799
0.00015015082
0.00015019039
0.00015022974
0.00015027011
0.00015031062
0.00015035041
0.00015038927
0.00015042261
0.00015044752
0.00015046352
0.00015047074
0.00015047294
0.00015047238
0.00015046812
0.00015045413
0.00015042325
0.00015037682
0.0001503251
0.00015027372
0.0001502252
0.00015018097
0.00015014159
0.00015010685
0.00015007669
0.00015005117
0.00015002991
0.00015001081
0.00014998833
0.00014996978
0.00014995793
0.0001499514
0.00014994768
0.00015001548
0.00015000469
0.00014999269
0.00014998212
0.00014997368
0.00014996719
0.00014996223
0.00014995844
0.00014995557
0.00014995343
0.00014995182
0.00014995058
0.00014994964
0.00014994894
0.00014994845
0.00014994811
0.00014994788
0.00014994776
0.00014994755
0.00015002622
0.00015003861
0.00015005321
0.00015007056
0.00015009123
0.00015011588
0.00015014476
0.00015018311
0.00015022968
0.00015027502
0.0001503199
0.00015036357
0.00015040348
0.00015043813
0.00015046238
0.00015047363
0.00015047721
0.00015047835
0.00015047855
0.00015047807
0.00015047636
0.00015047063
0.00015044677
0.00015039746
0.00015034013
0.00015028421
0.00015023231
0.00015018561
0.00015014428
0.00015010791
0.00015007706
0.0001500515
0.00015002875
0.00015000989
0.00014998731
0.00014996919
0.00014995762
0.00014995125
0.00014994765
0.0001500261
0.00015001548
0.00015000481
0.00014999293
0.00014998242
0.00014997398
0.00014996745
0.00014996243
0.0001499586
0.00014995575
0.00014995359
0.0001499519
0.00014995061
0.00014994964
0.00014994895
0.00014994846
0.00014994813
0.00014994791
0.00014994779
0.00014994757
0.00015003827
0.00015005255
0.00015006945
0.00015008957
0.00015011355
0.0001501423
0.00015017575
0.00015022065
0.00015027529
0.00015032651
0.00015037401
0.00015041696
0.0001504502
0.00015047118
0.00015047752
0.00015047934
0.00015047994
0.0001504801
0.00015048002
0.00015047967
0.00015047883
0.00015047636
0.00015046445
0.00015041711
0.00015035447
0.00015029406
0.0001502388
0.00015018948
0.00015014592
0.00015010864
0.00015007776
0.00015004997
0.00015002762
0.00015000903
0.00014998645
0.00014996871
0.00014995741
0.0001499512
0.00014994769
0.00015003812
0.0001500261
0.00015001559
0.00015000507
0.00014999332
0.00014998283
0.00014997435
0.00014996774
0.00014996266
0.00014995887
0.00014995597
0.00014995369
0.00014995193
0.00014995061
0.00014994965
0.00014994896
0.00014994849
0.00014994816
0.00014994794
0.00014994783
0.00014994759
0.00015005214
0.00015006865
0.00015008822
0.00015011154
0.00015013939
0.00015017295
0.00015021168
0.00015026418
0.00015032726
0.00015038217
0.000150427
0.00015046061
0.00015047542
0.00015047916
0.00015048025
0.00015048069
0.00015048089
0.00015048091
0.00015048073
0.00015048037
0.00015047977
0.00015047841
0.00015047287
0.00015043516
0.00015036778
0.00015030301
0.00015024429
0.000150192
0.00015014717
0.00015010987
0.00015007568
0.00015004842
0.00015002657
0.00015000831
0.00014998575
0.00014996838
0.00014995731
0.00014995123
0.00014994782
0.00015005196
0.00015003812
0.00015002622
0.00015001583
0.00015000549
0.00014999384
0.00014998334
0.00014997476
0.00014996806
0.00014996305
0.00014995918
0.00014995611
0.00014995373
0.00014995192
0.0001499506
0.00014994965
0.00014994898
0.00014994851
0.00014994819
0.00014994797
0.00014994786
0.00014994761
0.00015006815
0.00015008724
0.00015010992
0.00015013694
0.00015016937
0.00015020851
0.00015025333
0.00015031391
0.00015038349
0.00015043529
0.00015046724
0.00015047766
0.00015048
0.00015048081
0.00015048129
0.00015048159
0.00015048171
0.00015048163
0.00015048136
0.00015048091
0.0001504803
0.00015047933
0.00015047622
0.00015045041
0.00015037968
0.00015031067
0.00015024806
0.00015019402
0.00015014913
0.00015010702
0.00015007353
0.00015004702
0.00015002568
0.00015000771
0.00014998523
0.00014996818
0.00014995731
0.00014995137
0.00014994802
0.00015006794
0.00015005196
0.00015003827
0.0001500265
0.00015001621
0.00015000605
0.00014999448
0.00014998389
0.00014997522
0.00014996863
0.0001499635
0.00014995937
0.00014995615
0.0001499537
0.0001499519
0.0001499506
0.00014994967
0.000149949
0.00014994854
0.00014994822
0.00014994801
0.0001499479
0.00014994763
0.00015008664
0.00015010874
0.00015013501
0.00015016633
0.00015020419
0.00015024971
0.0001503011
0.00015036846
0.00015043684
0.00015047153
0.00015047898
0.00015048052
0.00015048127
0.00015048185
0.00015048228
0.00015048254
0.00015048258
0.00015048239
0.000150482
0.00015048143
0.00015048072
0.00015047984
0.00015047769
0.00015046096
0.00015038961
0.00015031604
0.00015025114
0.00015019705
0.00015014524
0.00015010403
0.00015007163
0.00015004583
0.00015002494
0.00015000725
0.00014998488
0.00014996812
0.00014995743
0.00014995161
0.00014994829
0.00015008638
0.00015006794
0.00015005214
0.00015003861
0.00015002695
0.00015001674
0.00015000672
0.00014999517
0.00014998452
0.00014997603
0.00014996927
0.00014996374
0.00014995941
0.00014995611
0.00014995365
0.00014995188
0.00014995061
0.00014994969
0.00014994903
0.00014994857
0.00014994825
0.00014994804
0.00014994795
0.00014994765
0.00015010801
0.00015013358
0.00015016402
0.00015020046
0.00015024455
0.00015029701
0.00015035412
0.00015042268
0.00015047132
0.00015047966
0.00015048094
0.0001504817
0.00015048239
0.00015048297
0.00015048338
0.00015048357
0.00015048351
0.0001504832
0.00015048265
0.00015048194
0.00015048111
0.00015048019
0.00015047845
0.00015046536
0.00015039599
0.00015032028
0.00015025557
0.00015019172
0.00015014109
0.00015010144
0.00015007
0.00015004482
0.00015002434
0.00015000694
0.00014998474
0.00014996822
0.00014995768
0.00014995195
0.00014994862
0.0001501077
0.00015008638
0.00015006815
0.00015005255
0.00015003915
0.00015002756
0.00015001738
0.0001500074
0.00014999594
0.00014998564
0.00014997694
0.00014996958
0.00014996378
0.00014995934
0.00014995602
0.00014995362
0.00014995188
0.00014995062
0.0001499497
0.00014994905
0.0001499486
0.00014994829
0.00014994808
0.00014994799
0.00014994767
0.0001501327
0.00015016232
0.00015019764
0.00015024009
0.00015029095
0.00015034978
0.00015040851
0.00015046494
0.00015047958
0.00015048128
0.00015048213
0.00015048293
0.00015048366
0.00015048425
0.00015048461
0.00015048471
0.00015048451
0.00015048403
0.00015048332
0.00015048244
0.00015048148
0.00015048047
0.00015047887
0.00015046618
0.00015039981
0.00015032608
0.00015024836
0.00015018603
0.00015013761
0.00015009922
0.00015006862
0.000150044
0.00015002391
0.00015000677
0.0001499848
0.00014996849
0.00014995803
0.00014995238
0.00014994901
0.00015013233
0.0001501077
0.00015008664
0.00015006865
0.00015005321
0.0001500399
0.00015002833
0.00015001803
0.00015000813
0.00014999736
0.00014998688
0.00014997734
0.00014996961
0.00014996366
0.0001499592
0.00014995596
0.0001499536
0.00014995188
0.00014995063
0.00014994972
0.00014994908
0.00014994863
0.00014994832
0.00014994812
0.00014994804
0.00014994769
0.00015016126
0.0001501956