/*--------------------------------*- C++ -*----------------------------------*\
  =========                 |
  \\      /  F ield         | OpenFOAM: The Open Source CFD Toolbox
   \\    /   O peration     | Website:  https://openfoam.org
    \\  /    A nd           | Version:  8
     \\/     M anipulation  |
\*---------------------------------------------------------------------------*/
FoamFile
{
    version     2.0;
    format      ascii;
    class       volScalarField;
    location    "0.966377";
    object      nut;
}
// * * * * * * * * * * * * * * * * * * * * * * * * * * * * * * * * * * * * * //

dimensions      [0 2 -1 0 0 0 0];

internalField   nonuniform List<scalar> 
9200
(
0.033331489
0.033331418
0.03333139
0.03333136
0.033331331
0.033331313
0.033331316
0.033331288
0.033331272
0.033331266
0.033331284
0.033331265
0.033331245
0.033331249
0.033331248
0.033331262
0.033331253
0.033331236
0.033331235
0.033331253
0.033331255
0.033331246
0.033331249
0.033331236
0.033331239
0.033331248
0.033331279
0.033331279
0.033331235
0.03333125
0.033331241
0.033331246
0.033331259
0.033331278
0.03333132
0.033331317
0.033331228
0.033331252
0.033331248
0.033331256
0.033331271
0.033331292
0.033331318
0.033331374
0.033331365
0.033331222
0.033331254
0.033331254
0.033331266
0.033331283
0.033331306
0.033331336
0.03333137
0.03333144
0.033331423
0.033331217
0.033331255
0.033331259
0.033331274
0.033331294
0.03333132
0.033331351
0.033331391
0.033331433
0.033331518
0.033331491
0.033331213
0.033331255
0.033331262
0.033331281
0.033331304
0.033331332
0.033331367
0.033331408
0.033331459
0.033331509
0.033331611
0.033331569
0.03333121
0.033331254
0.033331264
0.033331285
0.033331312
0.033331344
0.033331382
0.033331427
0.033331479
0.03333154
0.033331599
0.033331717
0.033331656
0.033331207
0.033331251
0.033331264
0.033331288
0.033331317
0.033331353
0.033331396
0.033331445
0.033331502
0.033331565
0.033331638
0.033331703
0.033331837
0.033331753
0.033331204
0.033331248
0.033331262
0.033331288
0.033331321
0.03333136
0.033331408
0.033331463
0.033331525
0.033331594
0.033331669
0.033331751
0.033331821
0.033331971
0.033331858
0.033331201
0.033331243
0.03333126
0.033331288
0.033331323
0.033331366
0.033331417
0.033331478
0.033331547
0.033331624
0.033331706
0.033331791
0.033331882
0.033331954
0.033332117
0.033331969
0.033331198
0.033331239
0.033331256
0.033331286
0.033331323
0.033331369
0.033331425
0.033331492
0.033331568
0.033331653
0.033331744
0.033331839
0.033331933
0.03333203
0.033332101
0.033332274
0.033332086
0.033331195
0.033331234
0.033331252
0.033331283
0.033331322
0.033331371
0.033331431
0.033331503
0.033331587
0.033331681
0.033331783
0.033331889
0.033331995
0.033332096
0.033332195
0.03333226
0.033332439
0.033332205
0.033331192
0.033331229
0.033331248
0.033331279
0.03333132
0.033331371
0.033331435
0.033331512
0.033331604
0.033331708
0.033331822
0.033331942
0.033332062
0.033332176
0.03333228
0.033332376
0.033332429
0.033332609
0.033332325
0.03333119
0.033331224
0.033331244
0.033331275
0.033331317
0.03333137
0.033331437
0.03333152
0.033331618
0.033331732
0.033331859
0.033331995
0.033332133
0.033332265
0.033332384
0.033332484
0.033332572
0.033332606
0.033332781
0.033332442
0.033331187
0.033331219
0.033331239
0.033331271
0.033331314
0.033331368
0.033331438
0.033331525
0.033331631
0.033331754
0.033331895
0.033332047
0.033332205
0.033332359
0.033332499
0.033332617
0.033332707
0.033332779
0.033332787
0.033332951
0.033332553
0.033331185
0.033331215
0.033331235
0.033331267
0.03333131
0.033331366
0.033331438
0.033331529
0.033331641
0.033331774
0.033331928
0.033332098
0.033332278
0.033332458
0.033332625
0.033332768
0.033332878
0.033332949
0.033332996
0.03333297
0.033333116
0.033332657
0.033331183
0.033331211
0.033331231
0.033331263
0.033331306
0.033331364
0.033331438
0.033331532
0.033331649
0.033331791
0.033331958
0.033332146
0.03333235
0.033332559
0.033332758
0.033332934
0.033333072
0.033333163
0.033333205
0.033333218
0.033333151
0.033333272
0.03333275
0.033331181
0.033331207
0.033331227
0.033331259
0.033331303
0.033331361
0.033331436
0.033331534
0.033331656
0.033331806
0.033331985
0.033332192
0.03333242
0.03333266
0.033332896
0.033333112
0.033333288
0.033333411
0.033333472
0.033333474
0.033333442
0.033333325
0.033333414
0.03333283
0.033331179
0.033331203
0.033331223
0.033331256
0.033331299
0.033331358
0.033331435
0.033331535
0.033331662
0.033331819
0.03333201
0.033332234
0.033332487
0.033332759
0.033333037
0.033333299
0.033333523
0.03333369
0.033333784
0.033333803
0.033333751
0.033333664
0.033333489
0.03333354
0.033332895
0.033331178
0.0333312
0.03333122
0.033331252
0.033331296
0.033331355
0.033331433
0.033331535
0.033331666
0.03333183
0.033332032
0.033332273
0.03333255
0.033332856
0.033333177
0.033333491
0.033333773
0.033333997
0.033334141
0.033334191
0.033334151
0.033334032
0.03333388
0.033333641
0.033333647
0.033332945
0.033331176
0.033331197
0.033331217
0.033331249
0.033331292
0.033331352
0.033331431
0.033331535
0.033331669
0.03333184
0.033332052
0.033332309
0.03333261
0.033332949
0.033333315
0.033333686
0.033334034
0.033334327
0.033334537
0.03333464
0.03333463
0.033334513
0.033334314
0.033334085
0.033333775
0.033333732
0.033332976
0.033331175
0.033331194
0.033331214
0.033331246
0.033331289
0.033331349
0.033331429
0.033331534
0.033331672
0.033331848
0.033332069
0.033332341
0.033332664
0.033333037
0.033333449
0.033333879
0.033334299
0.033334673
0.033334965
0.033335143
0.033335187
0.033335095
0.033334886
0.033334591
0.033334277
0.033333891
0.033333794
0.033332991
0.033331174
0.033331192
0.033331212
0.033331243
0.033331287
0.033331346
0.033331427
0.033331534
0.033331674
0.033331855
0.033332084
0.033332369
0.033332715
0.03333312
0.033333577
0.033334068
0.033334564
0.033335024
0.033335408
0.033335677
0.033335804
0.033335773
0.033335583
0.033335263
0.03333486
0.033334451
0.033333986
0.033333833
0.033332988
0.033331173
0.03333119
0.03333121
0.033331241
0.033331284
0.033331344
0.033331425
0.033331533
0.033331675
0.033331861
0.033332098
0.033332395
0.033332761
0.033333196
0.033333698
0.03333425
0.033334822
0.03333537
0.033335844
0.033336201
0.033336418
0.033336479
0.033336372
0.033336082
0.033335639
0.033335116
0.033334605
0.033334059
0.033333847
0.033332968
0.033331172
0.033331188
0.033331208
0.033331239
0.033331282
0.033331342
0.033331423
0.033331532
0.033331676
0.033331865
0.033332109
0.033332418
0.033332802
0.033333267
0.033333811
0.033334422
0.033335068
0.033335697
0.033336245
0.033336655
0.032929879
0.032347514
0.032342509
0.032904048
0.033336571
0.033336008
0.033335355
0.033334738
0.033334108
0.033333838
0.033332932
0.033331171
0.033331187
0.033331206
0.033331238
0.033331281
0.03333134
0.033331422
0.033331531
0.033331677
0.033331869
0.033332119
0.033332438
0.033332839
0.033333331
0.033333916
0.033334583
0.033335297
0.033335993
0.033336581
0.032425144
0.031019927
0.030182477
0.029907964
0.030196264
0.031047486
0.032454849
0.033336363
0.033335574
0.033334847
0.033334135
0.033333807
0.033332882
0.03333117
0.033331185
0.033331205
0.033331236
0.033331279
0.033331339
0.033331421
0.033331531
0.033331678
0.033331873
0.033332128
0.033332456
0.033332873
0.033333389
0.033334012
0.033334731
0.033335507
0.033336253
0.033110851
0.030926204
0.029308329
0.028241128
0.027709593
0.02771033
0.028254084
0.029359023
0.031035829
0.033269162
0.033335771
0.033334932
0.03333414
0.033333755
0.033332818
0.033331169
0.033331183
0.033331203
0.033331233
0.033331277
0.033331338
0.03333142
0.033331531
0.033331679
0.033331876
0.033332135
0.033332472
0.033332902
0.033333442
0.033334099
0.033334866
0.033335694
0.033336468
0.031956467
0.0296001
0.027804694
0.026545404
0.025797337
0.025545938
0.025789716
0.026547257
0.027859126
0.02976227
0.032259621
0.033335943
0.033334993
0.033334123
0.033333684
0.033332744
0.033331168
0.033331182
0.033331201
0.033331231
0.033331274
0.033331336
0.033331419
0.033331532
0.03333168
0.033331879
0.033332142
0.033332486
0.033332929
0.033333489
0.033334178
0.033334987
0.033335859
0.033336639
0.030939381
0.028439545
0.026496532
0.02507416
0.024140277
0.023671358
0.023659458
0.024112556
0.02505627
0.026544138
0.028637833
0.03137164
0.033336091
0.03333503
0.033334087
0.033333598
0.033332661
0.033331168
0.03333118
0.033331199
0.033331229
0.033331271
0.033331332
0.033331417
0.033331531
0.033331683
0.033331883
0.033332149
0.033332498
0.033332952
0.03333353
0.033334248
0.033335096
0.033336003
0.033247655
0.030048403
0.027429717
0.025360345
0.02379688
0.02269859
0.022036183
0.021797483
0.021986761
0.022622116
0.023735951
0.025385321
0.027651082
0.030597704
0.033336214
0.033335045
0.033334034
0.033333498
0.033332571
0.033331167
0.033331179
0.033331198
0.033331227
0.033331269
0.033331328
0.033331412
0.033331528
0.033331683
0.033331888
0.033332156
0.03333251
0.033332973
0.033333568
0.033334311
0.033335193
0.033336127
0.032574161
0.029272458
0.026552692
0.024374635
0.022687353
0.021443517
0.020611354
0.020174793
0.02013241
0.020495854
0.021290765
0.022557499
0.024357543
0.026784541
0.029929006
0.033336312
0.03333504
0.033333966
0.033333387
0.033332475
0.033331167
0.033331179
0.033331197
0.033331226
0.033331267
0.033331325
0.033331406
0.033331522
0.03333168
0.033331889
0.033332165
0.033332524
0.033332993
0.033333601
0.033334367
0.033335278
0.033336232
0.031986675
0.028597977
0.025791814
0.023519605
0.021723455
0.020352581
0.019373409
0.018766634
0.018524913
0.018653021
0.019168005
0.020102196
0.021504506
0.023442905
0.026022421
0.029353767
0.033336387
0.033335016
0.033333886
0.033333269
0.033332377
0.033331166
0.033331178
0.033331196
0.033331225
0.033331265
0.033331322
0.033331402
0.033331514
0.033331673
0.033331887
0.033332168
0.033332538
0.033333014
0.033333632
0.033334416
0.033335352
0.033336319
0.031474387
0.028012812
0.025132493
0.022778282
0.020886736
0.01940573
0.018300241
0.017547638
0.017135411
0.017061774
0.017336796
0.017983313
0.019039736
0.020562579
0.022627802
0.025351035
0.028861579
0.033334173
0.033334976
0.033333796
0.033333145
0.033332277
0.033331166
0.033331178
0.033331196
0.033331224
0.033331263
0.03333132
0.033331398
0.033331507
0.03333166
0.033331876
0.033332166
0.033332543
0.033333037
0.033333665
0.033334462
0.033335418
0.033336392
0.031028588
0.027505786
0.024561523
0.022135847
0.020161084
0.018585072
0.01737133
0.01649395
0.015936152
0.015690801
0.015761637
0.016163535
0.016924586
0.018088682
0.019719084
0.021900503
0.024758909
0.028442934
0.033163469
0.033334923
0.033333698
0.033333018
0.033332177
0.033331177
0.033331166
0.033331195
0.033331223
0.033331262
0.033331318
0.033331395
0.033331502
0.033331651
0.033331859
0.033332152
0.033332542
0.033333046
0.033333699
0.033334511
0.033335478
0.033336454
0.030642786
0.027067145
0.024067217
0.021579304
0.01953234
0.017874553
0.016568065
0.01558402
0.014902209
0.014511316
0.014409329
0.014604573
0.015116273
0.015977195
0.017236316
0.018963164
0.02125108
0.024236866
0.028089001
0.033054
0.03333486
0.033333596
0.033332891
0.033332079
0.033331195
0.033331177
0.033331166
0.033331222
0.033331261
0.033331316
0.033331393
0.033331498
0.033331644
0.033331844
0.033332127
0.033332524
0.033333046
0.033333714
0.033334559
0.033335539
0.033336508
0.030308802
0.026687885
0.023639796
0.021097466
0.01898805
0.017259946
0.015873956
0.014798764
0.014011475
0.013497308
0.013249667
0.013271011
0.01357344
0.014180264
0.01512844
0.016471631
0.018285217
0.020670929
0.023776789
0.027791605
0.032997331
0.033334788
0.03333349
0.033332764
0.033331984
0.033331222
0.033331195
0.033331178
0.033331167
0.033331261
0.033331315
0.033331391
0.033331495
0.033331638
0.033331835
0.033332106
0.033332487
0.033333022
0.033333717
0.03333458
0.033335598
0.033336561
0.030017609
0.026359643
0.02327045
0.020680655
0.018517244
0.016728689
0.015274502
0.014121435
0.013244459
0.012625943
0.012255659
0.012131096
0.01225851
0.012653408
0.013342754
0.014367304
0.015785042
0.01767684
0.020152457
0.02337148
0.027543421
0.032987807
0.03333471
0.033333384
0.033332641
0.033331893
0.03333126
0.033331222
0.033331195
0.033331178
0.033331167
0.033331314
0.033331389
0.033331492
0.033331633
0.033331827
0.033332092
0.033332457
0.03333297
0.033333686
0.033334589
0.033335622
0.033336606
0.029715708
0.02607421
0.022951187
0.020320403
0.018110336
0.016269783
0.014757057
0.013537432
0.012584159
0.011877311
0.011403697
0.011156955
0.011138213
0.011356867
0.011831621
0.012592663
0.013684194
0.015168188
0.017130654
0.019689042
0.023014626
0.027337886
0.033016859
0.033334628
0.033333278
0.033332523
0.033331807
0.033331314
0.03333126
0.033331222
0.033331196
0.033331179
0.033331168
0.033331388
0.03333149
0.033331629
0.03333182
0.033332081
0.033332436
0.033332926
0.033333613
0.033334551
0.033335639
0.033336616
0.029350888
0.025785703
0.022674496
0.020009033
0.017758929
0.015873634
0.014310616
0.013034066
0.012015831
0.011234146
0.010673443
0.010324295
0.010183686
0.010255929
0.010553135
0.011096914
0.011920341
0.013070736
0.014613749
0.016640193
0.019274793
0.022700536
0.027169336
0.033079551
0.033334544
0.033333175
0.03333241
0.033331727
0.033331387
0.033331314
0.033331261
0.033331223
0.033331196
0.033331179
0.033331168
0.033331488
0.033331626
0.033331814
0.03333207
0.03333242
0.033332897
0.033333549
0.033334451
0.033335599
0.033336638
0.029322883
0.025433198
0.022402122
0.019739897
0.01745552
0.015531887
0.013925631
0.012600351
0.011526739
0.01068157
0.010047392
0.0096123004
0.0093700856
0.0093207169
0.0094711541
0.0098360473
0.01043956
0.01131736
0.012519599
0.014115301
0.016199727
0.01890447
0.022424372
0.027034171
0.033178508
0.033334459
0.033333078
0.033332305
0.033331652
0.033331488
0.033331387
0.033331314
0.033331261
0.033331224
0.033331197
0.03333118
0.033331169
0.033331624
0.03333181
0.033332062
0.033332406
0.033332873
0.033333508
0.033334363
0.033335478
0.033336616
0.029205303
0.025390348
0.022067862
0.019481142
0.017193785
0.015237165
0.013593823
0.012226783
0.011105903
0.010206801
0.0095105369
0.009003236
0.0086761345
0.0085258057
0.0085548737
0.0087725368
0.0091957901
0.0098510598
0.01077634
0.012024343
0.013667161
0.015804162
0.018573629
0.022182934
0.026932178
0.033308607
0.033334378
0.033332987
0.033332207
0.033331583
0.033331623
0.033331488
0.033331388
0.033331315
0.033331262
0.033331225
0.033331198
0.033331182
0.03333117
0.033331807
0.033332056
0.033332394
0.033332853
0.033333475
0.033334305
0.033335367
0.033336514
0.029033793
0.02528892
0.022017922
0.019162564
0.016947284
0.014983335
0.013307958
0.011905154
0.010743874
0.0097988762
0.0090500529
0.0084819765
0.0080838378
0.0078495773
0.0077782302
0.0078746827
0.0081501803
0.008623793
0.0093239719
0.0102908
0.011579283
0.013264291
0.015449178
0.01827934
0.02197552
0.026862964
0.033336303
0.033334304
0.033332905
0.033332117
0.03333152
0.033331806
0.033331623
0.033331488
0.033331389
0.033331316
0.033331263
0.033331226
0.033331199
0.033331183
0.033331171
0.033332052
0.033332385
0.033332835
0.033333445
0.033334259
0.033335293
0.033336414
0.029797055
0.025133963
0.021926782
0.019101701
0.016644817
0.014748594
0.013062025
0.011628357
0.010432523
0.0094484029
0.0086549982
0.0080356596
0.007577967
0.0072737542
0.0071192934
0.0071158357
0.0072701626
0.0075954351
0.0081125496
0.0088517669
0.0098550318
0.011179391
0.012902404
0.015131804
0.018020527
0.021800544
0.026813563
0.033336264
0.033334239
0.033332829
0.033332033
0.033331463
0.03333205
0.033331806
0.033331624
0.03333149
0.033331391
0.033331318
0.033331265
0.033331227
0.033331201
0.033331185
0.033331172
0.033332379
0.033332823
0.033333421
0.033334219
0.033335236
0.033336341
0.030592457
0.025835068
0.021772073
0.019011386
0.016575743
0.014462725
0.012838162
0.011390441
0.010164861
0.0091473313
0.0083160365
0.0076533632
0.0071456255
0.0067829925
0.0065595734
0.0064736953
0.0065285478
0.0067326001
0.0071007346
0.0076554805
0.0084287076
0.0094640012
0.010820373
0.012578408
0.014850489
0.017794626
0.021647775
0.026756799
0.033336232
0.03333418
0.033332759
0.033331957
0.033331412
0.033332377
0.03333205
0.033331807
0.033331626
0.033331492
0.033331393
0.03333132
0.033331267
0.033331229
0.033331203
0.033331187
0.033331173
0.033332815
0.033333403
0.033334185
0.033335184
0.033336286
0.030802679
0.026558896
0.022398684
0.01886071
0.016484521
0.014387804
0.012568693
0.011176806
0.0099349808
0.008888787
0.0080251984
0.0073258095
0.0067759094
0.0063643705
0.0060835791
0.0059296206
0.0059026787
0.0060075743
0.0062543637
0.006659449
0.0072468187
0.0080497516
0.0091133856
0.010498973
0.012290242
0.01460202
0.017591887
0.021504001
0.026685675
0.0333362
0.033334122
0.033332693
0.03333189
0.033331368
0.033332811
0.033332377
0.033332052
0.03333181
0.033331629
0.033331495
0.033331395
0.033331322
0.033331269
0.033331231
0.033331205
0.033331188
0.033331174
0.033333392
0.033334161
0.033335142
0.033336236
0.03105349
0.026728344
0.023054304
0.019435446
0.016338109
0.014294064
0.012490324
0.01092331
0.0097309646
0.008666895
0.0077757148
0.0070451087
0.0064595977
0.0060070016
0.0056783603
0.0054679937
0.0053737241
0.0053973905
0.0055452371
0.0058287801
0.0062657837
0.0068815085
0.0077105294
0.0087997335
0.010212652
0.012034103
0.014377223
0.017403268
0.021365336
0.026576247
0.033336156
0.033334061
0.033332633
0.033331832
0.033331323
0.033333387
0.033332811
0.033332379
0.033332056
0.033331814
0.033331633
0.033331498
0.033331398
0.033331325
0.033331271
0.033331233
0.033331206
0.03333119
0.033331175
0.033334145
0.03333511
0.033336193
0.031322325
0.02695798
0.023208619
0.020036772
0.016866086
0.014151981
0.012393642
0.010843145
0.0094928781
0.0084719312
0.0075617386
0.0068045935
0.0061888792
0.005701718
0.00533305
0.0050758045
0.0049259926
0.004883
0.0049500815
0.0051348172
0.0054500269
0.0059146658
0.0065551202
0.0074073737
0.0085200678
0.009957167
0.011801407
0.014169447
0.017230449
0.021195198
0.026411588
0.033336092
0.033334002
0.033332581
0.033331771
0.033331284
0.033334138
0.033333387
0.033332815
0.033332385
0.033332062
0.03333182
0.033331638
0.033331502
0.033331402
0.033331328
0.033331274
0.033331236
0.033331208
0.033331192
0.033331176
0.03333509
0.033336161
0.03153671
0.027212957
0.023425085
0.020173031
0.01741689
0.014640071
0.012252347
0.010742676
0.0094125302
0.0082485382
0.0073753152
0.0065984495
0.0059571845
0.0054407854
0.0050385284
0.0047422033
0.0045463991
0.0044486128
0.0044496474
0.004553988
0.0047704601
0.0051130079
0.0056015957
0.0062637655
0.0071369191
0.0082698995
0.009724608
0.011587525
0.013983575
0.017040807
0.020963013
0.026366883
0.033336012
0.033333947
0.03333251
0.033331717
0.033331251
0.033335081
0.033334138
0.033333392
0.033332823
0.033332394
0.03333207
0.033331827
0.033331644
0.033331507
0.033331406
0.033331332
0.033331277
0.033331238
0.03333121
0.033331194
0.033331178
0.03333614
0.03169373
0.027414628
0.023656843
0.020377531
0.017534249
0.015142412
0.012702182
0.010603775
0.009307828
0.0081691951
0.0071657764
0.0064201415
0.0057587399
0.0052177283
0.0047871351
0.0044581176
0.0042240898
0.0040810996
0.0040279879
0.0040668145
0.0042032065
0.004447039
0.0048131471
0.0053224734
0.0060037585
0.0068946176
0.0080421168
0.0095120353
0.011399687
0.013791576
0.016795464
0.020849846
0.026543624
0.033335922
0.033333849
0.033332446
0.033331673
0.033331225
0.033336131
0.033335081
0.033334145
0.033333403
0.033332835
0.033332406
0.033332081
0.033331835
0.033331651
0.033331514
0.033331412
0.033331336
0.033331279
0.033331239
0.033331212
0.033331197
0.033331179
0.031793227
0.027562338
0.023839942
0.020589496
0.017727696
0.015242232
0.013167678
0.011018718
0.0091717061
0.0080599741
0.0070881603
0.0062236561
0.0055881414
0.0050268213
0.0045724855
0.0042159563
0.0039500463
0.0037695902
0.0036719412
0.003657188
0.0037285072
0.003892537
0.0041598904
0.004546154
0.0050733716
0.0057706619
0.0066742926
0.0078351811
0.0093282226
0.011213825
0.013550152
0.016659548
0.020956587
0.026873471
0.033335808
0.03333376
0.033332391
0.033331639
0.033331207
0.031837056
0.033336131
0.03333509
0.033334161
0.033333421
0.033332853
0.03333242
0.033332092
0.033331844
0.03333166
0.033331522
0.033331417
0.033331338
0.033331281
0.033331241
0.033331214
0.0333312
0.033331181
0.027655415
0.023974331
0.020755966
0.017922556
0.015424351
0.013254506
0.011446632
0.0095566715
0.007927046
0.0069742992
0.0061483273
0.0054039071
0.0048635477
0.0043889132
0.0040094284
0.0037167494
0.0035051332
0.0033706715
0.0033119295
0.0033301318
0.0034294304
0.0036171922
0.0039045454
0.0043079452
0.0048501023
0.0055593143
0.006475493
0.0076586834
0.009152357
0.010983535
0.013407241
0.01673021
0.021163838
0.027244024
0.033335702
0.033333681
0.033332347
0.033331614
0.033331198
0.027695846
0.031837077
0.03333614
0.03333511
0.033334185
0.033333445
0.033332873
0.033332436
0.033332106
0.033331859
0.033331673
0.033331528
0.033331419
0.033331339
0.033331282
0.033331243
0.033331217
0.033331203
0.033331183
0.024058781
0.020878334
0.018074995
0.015602275
0.013421273
0.011521516
0.0099480223
0.0082853379
0.0068450092
0.0060300672
0.0053312166
0.0046907638
0.0042325853
0.0038329331
0.0035180154
0.0032802945
0.0031153973
0.0030205521
0.0029952973
0.0030417749
0.0031648495
0.0033725222
0.0036767988
0.0040946767
0.0046485218
0.0053700148
0.0063078995
0.0074943567
0.0089357364
0.010840603
0.013457537
0.016857517
0.02143054
0.027562881
0.033335605
0.033333616
0.033332314
0.033331599
0.033331196
0.024095298
0.027695863
0.031793295
0.033336161
0.033335142
0.033334219
0.033333475
0.033332897
0.033332457
0.033332127
0.033331876
0.03333168
0.033331531
0.03333142
0.03333134
0.033331284
0.033331246
0.03333122
0.033331207
0.033331185
0.020955001
0.018186886
0.015742031
0.013581487
0.011677669
0.01000915
0.008641784
0.0071783573
0.0059053339
0.0052088991
0.0046207957
0.0040704817
0.0036831561
0.003348306
0.0030890763
0.0028989377
0.0027743986
0.0027136207
0.0027170862
0.0027875668
0.0029303921
0.0031544532
0.0034731062
0.0039031386
0.0044693268
0.0052118911
0.006155287
0.0072918591
0.0087958982
0.01087863
0.013531562
0.017058216
0.02169523
0.027920801
0.033335522
0.033333565
0.033332293
0.033331595
0.033331203
0.02098789
0.024095312
0.02765547
0.031693846
0.033336193
0.033335184
0.033334259
0.033333508
0.033332926
0.033332487
0.033332152
0.033331887
0.033331683
0.033331532
0.033331421
0.033331342
0.033331287
0.033331249
0.033331223
0.033331211
0.033331187
0.018256992
0.015843812
0.013710322
0.011820602
0.010156813
0.0086904242
0.00750511
0.0062151281
0.005089472
0.0044948538
0.0040031584
0.003530977
0.0032047111
0.0029260941
0.0027152267
0.0025661494
0.0024762739
0.0024446942
0.0024725127
0.0025628791
0.0027219453
0.0029599995
0.0032910347
0.0037340929
0.0043205735
0.0050704314
0.0059663426
0.0071563676
0.008826134
0.010914892
0.013688189
0.017297858
0.021970406
0.028210196
0.033335455
0.033333529
0.033332283
0.033331602
0.033331219
0.018286846
0.020987903
0.024058828
0.027562435
0.031536864
0.033336236
0.033335236
0.033334305
0.033333549
0.03333297
0.033332524
0.033332166
0.033331889
0.033331683
0.033331531
0.033331422
0.033331344
0.033331289
0.033331252
0.033331227
0.033331215
0.03333119
0.0159076
0.013803484
0.01193783
0.010286572
0.0088289071
0.0075420314
0.0065136188
0.0053770726
0.0043813979
0.0038741585
0.0034660463
0.0030618076
0.0027885745
0.0025589013
0.0023897359
0.0022759323
0.0022157464
0.0022089282
0.0022568824
0.0023635479
0.0025366385
0.0027873392
0.0031313768
0.0035941415
0.0041892823
0.0048940094
0.0058356964
0.007181038
0.0088356823
0.01103937
0.013914866
0.017521172
0.022190236
0.028457555
0.033335405
0.033333509
0.033332286
0.03333162
0.033331244
0.015934749
0.018286857
0.020955042
0.023974413
0.027414759
0.031322508
0.033336286
0.033335294
0.033334363
0.033333613
0.033333022
0.033332542
0.033332168
0.033331888
0.03333168
0.033331531
0.033331423
0.033331346
0.033331292
0.033331256
0.033331231
0.033331219
0.033331192
0.013861225
0.012023854
0.010391121
0.008948658
0.0076692645
0.0065409838
0.0056477962
0.0046481925
0.0037673364
0.0033346279
0.002999002
0.0026545511
0.0024272325
0.0022398864
0.0021065446
0.0020229693
0.0019879676
0.0020016164
0.0020660453
0.0021868754
0.0023729882
0.0026368437
0.0029993573
0.0034715682
0.0040242976
0.00476833
0.0058560478
0.0071720062
0.0089353783
0.011256741
0.014101885
0.017700175
0.022379907
0.028652441
0.033335374
0.033333505
0.033332302
0.033331649
0.033331276
0.01388588
0.015934758
0.018257024
0.020878405
0.023840052
0.027213107
0.031053675
0.033336341
0.033335367
0.033334451
0.033333686
0.033333046
0.033332543
0.033332165
0.033331883
0.033331679
0.033331531
0.033331425
0.033331349
0.033331296
0.033331259
0.033331235
0.033331224
0.033331195
0.012076173
0.010469978
0.0090418807
0.0077787666
0.0066576675
0.0056687304
0.0048929313
0.0040144414
0.0032349946
0.0028661064
0.0025935743
0.00230158
0.0021137989
0.0019629646
0.0018603161
0.0018024164
0.001788251
0.0018186256
0.0018974062
0.0020315871
0.0022309779
0.0025123317
0.0028844306
0.0033174
0.0039035675
0.0047850403
0.0058343964
0.0072520794
0.009143908
0.011415621
0.014254263
0.017855699
0.022529379
0.028789845
0.033335364
0.033333519
0.033332332
0.033331689
0.033331315
0.012098316
0.013885887
0.015907625
0.018186943
0.020756063
0.023656972
0.026958122
0.030802879
0.033336414
0.033335478
0.033334551
0.033333717
0.033333046
0.033332538
0.033332156
0.033331879
0.033331678
0.033331532
0.033331427
0.033331352
0.033331299
0.033331263
0.033331239
0.033331229
0.033331198
0.010517908
0.0091125197
0.0078637709
0.0067561343
0.0057751923
0.004907932
0.0042347182
0.003463374
0.0027742294
0.0024601808
0.0022419992
0.0019960287
0.0018421836
0.0017228015
0.0016462251
0.0016096161
0.0016124567
0.0016573845
0.001749767
0.0018972905
0.0021132614
0.0024044742
0.0027412691
0.0032013055
0.0039169947
0.0047552811
0.0058985791
0.0074509621
0.0092796674
0.01154852
0.014387097
0.017978289
0.022635736
0.028868255
0.033335376
0.033333552
0.033332375
0.03333174
0.03333136
0.010537697
0.012098321
0.013861245
0.015843856
0.018075077
0.020589611
0.023425219
0.026728502
0.030592718
0.033336514
0.033335599
0.033334589
0.033333714
0.033333037
0.033332524
0.033332149
0.033331876
0.033331677
0.033331533
0.033331429
0.033331355
0.033331303
0.033331267
0.033331244
0.033331234
0.033331201
0.0091563886
0.0079268511
0.0068338911
0.0058634162
0.0050051229
0.0042445631
0.0036608007
0.00298436
0.0023764208
0.0021090688
0.0019373764
0.0017318632
0.0016070655
0.0015146269
0.0014596491
0.0014404138
0.0014579651
0.0015166686
0.001622421
0.0017857355
0.0020118219
0.0022719408
0.0026301337
0.0032112027
0.0038825178
0.0048064929
0.0060867312
0.0075670591
0.0093971349
0.011664367
0.014491765
0.018066336
0.02269871
0.02889019
0.03333541
0.0333336
0.033332429
0.033331801
0.033331412
0.0091742529
0.010537701
0.012076189
0.013803517
0.015742096
0.017922654
0.020377653
0.023208769
0.026559143
0.029797186
0.033336616
0.033335639
0.03333458
0.033333699
0.033333014
0.03333251
0.033332142
0.033331873
0.033331676
0.033331534
0.033331431
0.033331358
0.033331306
0.033331271
0.033331248
0.033331239
0.033331204
0.0079663314
0.0068907818
0.0059337452
0.005083812
0.0043331643
0.0036664662
0.0031603061
0.00256879
0.0020336214
0.0018058747
0.0016736922
0.0015038397
0.0014037224
0.0013338664
0.0012963815
0.0012920734
0.0013234724
0.0013955514
0.0015164911
0.0016902234
0.0018894263
0.0021661642
0.0026361222
0.0031748108
0.0039230747
0.0049828917
0.0061857603
0.0076716109
0.0094991759
0.011755697
0.01456746
0.018120192
0.022720951
0.028853317
0.033335462
0.033333663
0.033332494
0.033331871
0.033331468
0.0079824994
0.0091742567
0.010517922
0.012023882
0.01371037
0.015602353
0.0177278
0.020173161
0.023054507
0.025835222
0.029033621
0.033336638
0.033335622
0.033334559
0.033333665
0.033332993
0.033332498
0.033332135
0.033331869
0.033331675
0.033331534
0.033331433
0.033331361
0.03333131
0.033331275
0.033331252
0.033331244
0.033331207
0.0069259569
0.0059849845
0.0051469009
0.0044029292
0.0037466365
0.0031625306
0.0027245104
0.0022087309
0.0017387595
0.0015445707
0.0014457634
0.0013073438
0.0012276051
0.0011762067
0.0011534858
0.0011631322
0.001207924
0.0012947826
0.0014265307
0.0015775081
0.0017892164
0.0021682165
0.00259973
0.0032066052
0.0040870078
0.005066936
0.0062790859
0.0077618486
0.0095797175
0.011822189
0.014614795
0.018142266
0.022701453
0.028769193
0.033335535
0.03333374
0.033332567
0.03333195
0.03333153
0.0069403782
0.0079825031
0.0091563998
0.010470002
0.011937866
0.013581541
0.015424438
0.017534351
0.020036936
0.022398798
0.025133824
0.029205003
0.033336616
0.033335598
0.033334511
0.033333632
0.033332973
0.033332486
0.033332128
0.033331865
0.033331674
0.033331535
0.033331435
0.033331364
0.033331314
0.033331279
0.033331256
0.033331248
0.033331211
0.0060163917
0.0051931686
0.0044594663
0.0038086351
0.003234717
0.002723942
0.0023456377
0.0018970834
0.0014856396
0.0013199251
0.0012490821
0.0011379837
0.0010743546
0.0010385462
0.0010293846
0.0010524381
0.0011118451
0.0012100451
0.001323041
0.0014829033
0.0017873972
0.0021325194
0.0026242094
0.0033577996
0.0041578448
0.0051502797
0.0063589081
0.0078332209
0.0096386805
0.011864519
0.014635973
0.018132818
0.022652342
0.028615342
0.033335624
0.033333827
0.033332646
0.033332035
0.033331596
0.0060291356
0.0069403816
0.0079663409
0.0091125378
0.010391151
0.011820643
0.013421346
0.015242308
0.017417012
0.01943553
0.021771957
0.02528864
0.02932277
0.033336606
0.033335539
0.033334462
0.033333601
0.033332952
0.033332472
0.033332119
0.033331861
0.033331672
0.033331535
0.033331436
0.033331366
0.033331317
0.033331283
0.03333126
0.033331251
0.033331214
0.0052212965
0.0045009433
0.0038590338
0.0032896301
0.0027883873
0.002342867
0.0020166095
0.0016276173
0.0012688522
0.0011273676
0.0010794566
0.00099155245
0.00094082113
0.00091937142
0.00092311677
0.00096043304
0.0010318952
0.0011152523
0.0012339255
0.0014772427
0.0017527997
0.0021509235
0.0027624189
0.0034170625
0.004232216
0.005220743
0.0064222349
0.0078857164
0.009676725
0.01188466
0.014632028
0.018102708
0.022552688
0.028390409
0.033335724
0.03333392
0.03333273
0.033332126
0.033331665
0.0052325649
0.0060291382
0.006925965
0.0079268651
0.009041907