/*--------------------------------*- C++ -*----------------------------------*\
  =========                 |
  \\      /  F ield         | OpenFOAM: The Open Source CFD Toolbox
   \\    /   O peration     | Website:  https://openfoam.org
    \\  /    A nd           | Version:  8
     \\/     M anipulation  |
\*---------------------------------------------------------------------------*/
FoamFile
{
    version     2.0;
    format      ascii;
    class       volScalarField;
    location    "0.966377";
    object      omega_0;
}
// * * * * * * * * * * * * * * * * * * * * * * * * * * * * * * * * * * * * * //

dimensions      [0 0 -1 0 0 0 0];

internalField   nonuniform List<scalar> 
9200
(
0.0044986452
0.0044986553
0.0044986591
0.0044986638
0.0044986689
0.0044986713
0.0044986708
0.0044986763
0.0044986796
0.0044986811
0.0044986761
0.0044986824
0.0044986848
0.004498688
0.0044986887
0.0044986801
0.0044986871
0.0044986891
0.0044986911
0.0044986946
0.0044986949
0.0044986831
0.0044986907
0.0044986922
0.0044986941
0.0044986961
0.0044987008
0.0044987007
0.0044986852
0.0044986934
0.0044986946
0.0044986964
0.0044986986
0.0044987014
0.0044987076
0.004498707
0.0044986867
0.0044986953
0.0044986965
0.0044986983
0.0044987006
0.0044987037
0.0044987075
0.0044987157
0.0044987142
0.0044986877
0.0044986966
0.0044986979
0.0044987
0.0044987025
0.0044987058
0.0044987102
0.0044987151
0.0044987254
0.0044987227
0.0044986883
0.0044986974
0.0044986989
0.0044987013
0.0044987042
0.0044987079
0.0044987124
0.0044987182
0.0044987243
0.004498737
0.0044987326
0.0044986888
0.0044986978
0.0044986995
0.0044987023
0.0044987057
0.0044987098
0.0044987148
0.0044987208
0.0044987281
0.0044987354
0.0044987506
0.0044987439
0.004498689
0.0044986978
0.0044986998
0.004498703
0.0044987068
0.0044987115
0.004498717
0.0044987235
0.0044987311
0.00449874
0.0044987485
0.0044987662
0.0044987567
0.004498689
0.0044986976
0.0044986998
0.0044987034
0.0044987076
0.0044987128
0.004498719
0.0044987262
0.0044987345
0.0044987437
0.0044987542
0.0044987638
0.004498784
0.0044987708
0.004498689
0.0044986972
0.0044986996
0.0044987034
0.0044987081
0.0044987139
0.0044987208
0.0044987287
0.0044987378
0.0044987479
0.0044987588
0.0044987709
0.0044987811
0.0044988037
0.0044987861
0.0044986888
0.0044986967
0.0044986992
0.0044987033
0.0044987084
0.0044987147
0.0044987222
0.004498731
0.0044987411
0.0044987522
0.0044987642
0.0044987767
0.00449879
0.0044988006
0.0044988253
0.0044988025
0.0044986886
0.004498696
0.0044986987
0.004498703
0.0044987084
0.0044987151
0.0044987233
0.004498733
0.0044987441
0.0044987565
0.0044987698
0.0044987836
0.0044987975
0.0044988118
0.0044988222
0.0044988485
0.0044988196
0.0044986883
0.0044986953
0.0044986981
0.0044987026
0.0044987082
0.0044987154
0.0044987241
0.0044987346
0.0044987468
0.0044987606
0.0044987755
0.004498791
0.0044988065
0.0044988213
0.004498836
0.0044988455
0.0044988729
0.0044988371
0.0044986881
0.0044986946
0.0044986975
0.004498702
0.0044987079
0.0044987154
0.0044987247
0.0044987359
0.0044987492
0.0044987644
0.004498781
0.0044987986
0.0044988162
0.004498833
0.0044988483
0.0044988626
0.0044988704
0.0044988981
0.0044988547
0.0044986878
0.0044986939
0.0044986968
0.0044987014
0.0044987075
0.0044987152
0.004498725
0.004498737
0.0044987513
0.0044987679
0.0044987864
0.0044988062
0.0044988264
0.0044988458
0.0044988633
0.0044988782
0.0044988914
0.0044988965
0.0044989237
0.0044988719
0.0044986875
0.0044986932
0.0044986961
0.0044987008
0.004498707
0.0044987149
0.0044987251
0.0044987377
0.0044987531
0.0044987711
0.0044987915
0.0044988138
0.0044988369
0.0044988595
0.0044988801
0.0044988976
0.0044989111
0.0044989219
0.0044989233
0.0044989491
0.0044988884
0.0044986873
0.0044986925
0.0044986955
0.0044987002
0.0044987064
0.0044987146
0.0044987251
0.0044987383
0.0044987545
0.0044987739
0.0044987963
0.0044988211
0.0044988474
0.0044988737
0.0044988983
0.0044989194
0.0044989358
0.0044989466
0.0044989539
0.0044989504
0.0044989737
0.0044989038
0.004498687
0.0044986919
0.0044986949
0.0044986996
0.0044987058
0.0044987142
0.0044987249
0.0044987387
0.0044987557
0.0044987763
0.0044988006
0.004498828
0.0044988577
0.0044988882
0.0044989175
0.0044989434
0.0044989639
0.0044989777
0.0044989844
0.0044989867
0.0044989771
0.004498997
0.0044989176
0.0044986868
0.0044986913
0.0044986943
0.004498699
0.0044987053
0.0044987137
0.0044987247
0.0044987389
0.0044987566
0.0044987785
0.0044988045
0.0044988345
0.0044988678
0.0044989028
0.0044989374
0.0044989691
0.0044989952
0.0044990136
0.0044990231
0.004499024
0.0044990199
0.0044990031
0.0044990184
0.0044989296
0.0044986866
0.0044986908
0.0044986937
0.0044986984
0.0044987047
0.0044987132
0.0044987244
0.004498739
0.0044987574
0.0044987803
0.004498808
0.0044988406
0.0044988774
0.0044989171
0.0044989576
0.004498996
0.0044990291
0.004499054
0.0044990683
0.0044990717
0.0044990648
0.0044990528
0.0044990276
0.0044990374
0.0044989395
0.0044986864
0.0044986903
0.0044986933
0.0044986979
0.0044987042
0.0044987128
0.0044987241
0.004498739
0.004498758
0.0044987818
0.0044988111
0.0044988461
0.0044988864
0.0044989309
0.0044989777
0.0044990237
0.0044990652
0.0044990983
0.0044991199
0.0044991281
0.0044991229
0.0044991064
0.0044990848
0.0044990501
0.0044990536
0.004498947
0.0044986862
0.0044986899
0.0044986928
0.0044986974
0.0044987037
0.0044987123
0.0044987238
0.0044987389
0.0044987584
0.0044987832
0.0044988139
0.0044988511
0.0044988948
0.0044989442
0.0044989975
0.0044990517
0.0044991027
0.0044991461
0.0044991773
0.0044991931
0.0044991924
0.0044991763
0.0044991481
0.0044991154
0.0044990704
0.0044990666
0.0044989519
0.0044986861
0.0044986895
0.0044986924
0.004498697
0.0044987033
0.0044987119
0.0044987235
0.0044987388
0.0044987587
0.0044987843
0.0044988163
0.0044988557
0.0044989026
0.0044989568
0.0044990167
0.0044990796
0.0044991412
0.0044991964
0.0044992397
0.0044992664
0.0044992735
0.0044992609
0.0044992312
0.0044991891
0.004499144
0.0044990878
0.0044990763
0.0044989544
0.0044986859
0.0044986891
0.0044986921
0.0044986966
0.0044987029
0.0044987115
0.0044987232
0.0044987387
0.004498759
0.0044987852
0.0044988184
0.0044988598
0.0044989098
0.0044989686
0.0044990351
0.0044991069
0.00449918
0.0044992486
0.0044993064
0.0044993471
0.0044993659
0.0044993608
0.004499333
0.004499287
0.004499229
0.00449917
0.0044991022
0.0044990824
0.0044989542
0.0044986858
0.0044986889
0.0044986918
0.0044986962
0.0044987025
0.0044987112
0.0044987229
0.0044987385
0.0044987591
0.004498786
0.0044988203
0.0044988634
0.0044989163
0.0044989795
0.0044990526
0.0044991335
0.0044992185
0.0044993018
0.0044993764
0.0044994343
0.0044994688
0.0044994756
0.0044994542
0.0044994078
0.0044993427
0.0044992671
0.0044991932
0.0044991133
0.004499085
0.0044989516
0.0044986857
0.0044986886
0.0044986915
0.004498696
0.0044987022
0.0044987108
0.0044987226
0.0044987384
0.0044987593
0.0044987866
0.0044988219
0.0044988666
0.0044989222
0.0044989896
0.0044990689
0.0044991588
0.0044992562
0.0044993553
0.0044994486
0.0044995269
0.0044995815
0.0044996053
0.0044995953
0.004499553
0.0044994843
0.0044993978
0.0044993027
0.0044992131
0.004499121
0.004499084
0.0044989466
0.0044986855
0.0044986883
0.0044986912
0.0044986957
0.004498702
0.0044987106
0.0044987223
0.0044987382
0.0044987593
0.0044987872
0.0044988233
0.0044988695
0.0044989275
0.0044989988
0.0044990841
0.0044991829
0.0044992926
0.0044994083
0.004499522
0.0044996239
0.0044997033
0.0044997505
0.0044997585
0.0044997258
0.0044996572
0.004499562
0.0044994513
0.0044993356
0.0044992296
0.0044991254
0.0044990797
0.0044989394
0.0044986855
0.004498688
0.0044986909
0.0044986954
0.0044987018
0.0044987104
0.0044987222
0.0044987381
0.0044987594
0.0044987876
0.0044988245
0.004498872
0.0044989322
0.0044990071
0.0044990981
0.0044992054
0.0044993275
0.00449946
0.0044995955
0.0044997239
0.0044998331
0.0044999103
0.0044999445
0.0044999299
0.004499868
0.0044997669
0.0044996403
0.0044995028
0.0044993651
0.0044992426
0.0044991265
0.0044990724
0.0044989304
0.0044986854
0.0044986878
0.0044986906
0.0044986951
0.0044987014
0.0044987103
0.0044987222
0.0044987381
0.0044987595
0.004498788
0.0044988255
0.0044988742
0.0044989364
0.0044990146
0.0044991109
0.0044992264
0.0044993605
0.0044995099
0.0044996682
0.0044998256
0.0044999688
0.0045000821
0.0045001504
0.0045001635
0.0045001184
0.0045000202
0.0044998813
0.004499719
0.0044995518
0.0044993912
0.004499252
0.0044991244
0.0044990622
0.0044989197
0.0044986853
0.0044986876
0.0044986904
0.0044986947
0.004498701
0.0044987099
0.0044987221
0.0044987382
0.0044987597
0.0044987884
0.0044988264
0.0044988761
0.0044989401
0.0044990213
0.0044991225
0.0044992456
0.0044993913
0.0044995575
0.0044997391
0.0044999273
0.004500108
0.0045002631
0.0045003738
0.0045004247
0.0045004071
0.0045003222
0.0045001803
0.0044999983
0.0044997971
0.0044995979
0.0044994137
0.0044992579
0.0044991195
0.0044990497
0.0044989076
0.0044986852
0.0044986874
0.0044986901
0.0044986944
0.0044987005
0.0044987093
0.0044987217
0.0044987383
0.0044987601
0.0044987889
0.0044988273
0.0044988778
0.0044989434
0.0044990273
0.004499133
0.0044992633
0.00449942
0.0044996025
0.0044998074
0.0045000275
0.0045002485
0.0045004507
0.0045006123
0.0045007124
0.0045007357
0.0045006766
0.0045005416
0.0045003475
0.0045001167
0.0044998736
0.0044996408
0.0044994326
0.0044992606
0.0044991119
0.0044990351
0.0044988945
0.0044986852
0.0044986872
0.00449869
0.0044986942
0.0044987001
0.0044987087
0.0044987209
0.0044987378
0.0044987604
0.0044987898
0.0044988283
0.0044988794
0.0044989463
0.0044990327
0.0044991424
0.0044992793
0.0044994463
0.0044996445
0.0044998726
0.0045001249
0.0045003881
0.0045006423
0.0045008631
0.0045010245
0.0045011036
0.0045010866
0.004500973
0.0045007764
0.0045005211
0.0045002356
0.0044999476
0.0044996802
0.004499448
0.0044992601
0.0044991022
0.0044990188
0.0044988806
0.0044986851
0.0044986871
0.0044986898
0.004498694
0.0044986999
0.0044987082
0.00449872
0.0044987368
0.0044987598
0.0044987903
0.0044988298
0.0044988812
0.004498949
0.0044990374
0.0044991508
0.0044992937
0.0044994703
0.0044996834
0.004499934
0.0045002184
0.0045005251
0.004500835
0.0045011226
0.0045013572
0.0045015083
0.0045015525
0.0045014794
0.0045012962
0.0045010255
0.0045006999
0.0045003542
0.0045000185
0.004499716
0.0044994599
0.0044992569
0.0044990905
0.0044990014
0.0044988661
0.0044986851
0.004498687
0.0044986897
0.0044986938
0.0044986996
0.0044987079
0.0044987193
0.0044987355
0.0044987584
0.0044987896
0.0044988307
0.0044988836
0.004498952
0.0044990418
0.0044991583
0.0044993066
0.0044994921
0.0044997191
0.0044999912
0.0045003071
0.0045006577
0.0045010262
0.0045013869
0.0045017059
0.0045019457
0.0045020723
0.0045020634
0.0045019155
0.0045016458
0.0045012876
0.0045008827
0.0045004715
0.0045000859
0.004499748
0.0044994686
0.0044992513
0.0044990774
0.004498983
0.0044988515
0.004498685
0.004498687
0.0044986896
0.0044986936
0.0044986994
0.0044987075
0.0044987189
0.0044987346
0.0044987566
0.0044987878
0.0044988299
0.0044988851
0.0044989558
0.0044990464
0.0044991651
0.0044993182
0.0044995117
0.0044997517
0.0045000441
0.0045003904
0.0045007847
0.0045012133
0.0045016521
0.0045020656
0.0045024105
0.0045026423
0.0045027249
0.0045026404
0.0045023956
0.0045020206
0.0045015612
0.0045010681
0.0045005867
0.0045001495
0.0044997763
0.0044994743
0.0044992437
0.0044990631
0.0044989642
0.0044988368
0.0044986869
0.004498685
0.0044986895
0.0044986935
0.0044986992
0.0044987072
0.0044987185
0.0044987339
0.0044987552
0.0044987852
0.0044988275
0.0044988842
0.004498958
0.0044990522
0.0044991723
0.0044993288
0.0044995293
0.0044997812
0.0045000926
0.0045004678
0.0045009048
0.0045013941
0.0045019143
0.0045024308
0.0045028961
0.0045032564
0.0045034609
0.0045034743
0.004503287
0.00450292
0.0045024193
0.0045018443
0.0045012546
0.0045006991
0.004500209
0.0044998009
0.0044994774
0.0044992345
0.004499048
0.0044989453
0.0044988223
0.0044986895
0.0044986869
0.0044986851
0.0044986934
0.0044986991
0.004498707
0.0044987181
0.0044987334
0.0044987544
0.0044987832
0.0044988238
0.0044988809
0.004498957
0.0044990557
0.004499181
0.0044993396
0.0044995453
0.0044998078
0.0045001367
0.0045005391
0.0045010174
0.0045015666
0.0045021702
0.0045027959
0.0045033952
0.0045039068
0.0045042655
0.0045044163
0.0045043282
0.0045040056
0.004503488
0.0045028399
0.0045021351
0.0045014409
0.0045008078
0.0045002644
0.0044998221
0.0044994781
0.004499224
0.0044990324
0.0044989264
0.0044988083
0.0044986934
0.0044986895
0.004498687
0.0044986851
0.004498699
0.0044987068
0.0044987178
0.0044987328
0.0044987536
0.004498782
0.0044988208
0.0044988757
0.0044989528
0.0044990547
0.0044991862
0.0044993525
0.0044995613
0.0044998318
0.0045001765
0.0045006044
0.0045011218
0.0045017294
0.0045024166
0.0045031558
0.0045039002
0.004504584
0.0045051297
0.0045054614
0.0045055228
0.0045052934
0.0045047975
0.0045040979
0.0045032798
0.0045024313
0.0045016256
0.0045009125
0.0045003155
0.00449984
0.0044994768
0.0044992125
0.0044990167
0.004498908
0.0044987948
0.0044986989
0.0044986934
0.0044986895
0.004498687
0.0044986852
0.0044987067
0.0044987175
0.0044987324
0.0044987528
0.0044987808
0.004498819
0.0044988712
0.0044989453
0.0044990492
0.0044991854
0.0044993605
0.0044995804
0.0044998557
0.0045002126
0.0045006636
0.0045012178
0.0045018816
0.0045026511
0.0045035057
0.0045044034
0.0045052778
0.004506042
0.0045066006
0.0045068688
0.0045067945
0.0045063756
0.004505663
0.0045047473
0.0045037362
0.0045027306
0.0045018073
0.0045010124
0.0045003625
0.004499855
0.004499474
0.0044992005
0.0044990011
0.0044988902
0.004498782
0.0044987067
0.0044986989
0.0044986934
0.0044986896
0.0044986871
0.0044986852
0.0044987174
0.0044987321
0.0044987522
0.0044987798
0.0044988174
0.0044988687
0.0044989387
0.0044990384
0.0044991784
0.0044993604
0.0044995929
0.0044998844
0.0045002479
0.0045007173
0.0045013054
0.0045020223
0.0045028717
0.0045038417
0.0045048978
0.0045059773
0.0045069888
0.0045078203
0.0045083582
0.0045085128
0.0045082445
0.0045075787
0.0045066006
0.0045054328
0.0045042057
0.0045030308
0.0045019848
0.0045011073
0.0045004054
0.0044998674
0.0044994697
0.004499188
0.0044989857
0.0044988733
0.00449877
0.0044987173
0.0044987067
0.004498699
0.0044986935
0.0044986897
0.0044986872
0.0044986853
0.0044987319
0.0044987518
0.0044987789
0.0044988159
0.0044988664
0.0044989351
0.0044990288
0.004499163
0.0044993513
0.0044995942
0.0044999044
0.0045002905
0.0045007692
0.004501385
0.0045021515
0.0045030773
0.0045041604
0.004505377
0.0045066722
0.0045079555
0.0045091038
0.0045099767
0.004510444
0.0045104184
0.0045098838
0.0045089044
0.0045076072
0.00450615
0.0045046846
0.0045033294
0.004502157
0.0045011968
0.0045004442
0.0044998772
0.0044994643
0.0044991754
0.0044989709
0.0044988574
0.0044987588
0.0044987318
0.0044987173
0.0044987067
0.0044986991
0.0044986936
0.0044986898
0.0044986874
0.0044986854
0.0044987515
0.0044987783
0.0044988147
0.0044988642
0.0044989318
0.0044990236
0.0044991489
0.0044993291
0.0044995824
0.0044999076
0.0045003216
0.0045008314
0.0045014614
0.0045022694
0.004503267
0.0045044595
0.0045058355
0.0045073526
0.0045089271
0.0045104317
0.0045117046
0.0045125751
0.0045129011
0.0045126092
0.0045117214
0.0045103523
0.0045086784
0.0045068939
0.0045051691
0.0045036242
0.0045023228
0.0045012806
0.0045004791
0.0044998848
0.0044994579
0.004499163
0.0044989571
0.0044988427
0.0044987485
0.0044987513
0.0044987318
0.0044987174
0.0044987068
0.0044986992
0.0044986938
0.00449869
0.0044986876
0.0044986855
0.0044987779
0.0044988138
0.0044988625
0.0044989287
0.0044990189
0.0044991415
0.0044993087
0.0044995499
0.0044998915
0.0045003265
0.0045008782
0.004501552
0.0045023817
0.004503441
0.0045047374
0.0045062693
0.0045080099
0.0045098889
0.004511783
0.0045135171
0.0045148845
0.0045156847
0.0045157732
0.0045151067
0.0045137627
0.0045119191
0.0045098078
0.0045076586
0.004505655
0.0045039129
0.0045024813
0.0045013585
0.00450051
0.0044998901
0.0044994512
0.0044991515
0.0044989447
0.0044988291
0.0044987391
0.0044987777
0.0044987513
0.0044987319
0.0044987175
0.004498707
0.0044986994
0.004498694
0.0044986901
0.0044986878
0.0044986855
0.0044988132
0.0044988612
0.0044989262
0.0044990145
0.0044991348
0.0044992983
0.0044995204
0.0044998435
0.0045003047
0.0045008841
0.0045016228
0.0045025133
0.0045036058
0.0045049934
0.004506675
0.0045086369
0.0045108276
0.0045131364
0.004515386
0.0045173423
0.0045187483
0.004519379
0.0045191028
0.0045179288
0.0045160092
0.0045135985
0.0045109874
0.0045084375
0.0045061382
0.0045041933
0.0045026315
0.0045014301
0.0045005369
0.0044998939
0.0044994452
0.0044991416
0.0044989336
0.0044988165
0.0044987305
0.0044988129
0.0044987777
0.0044987515
0.0044987321
0.0044987178
0.0044987072
0.0044986996
0.0044986942
0.0044986904
0.004498688
0.0044986857
0.0044988604
0.0044989243
0.0044990109
0.0044991285
0.0044992887
0.0044995063
0.0044998007
0.0045002369
0.0045008563
0.0045016318
0.00450262
0.0045037967
0.0045052354
0.0045070512
0.004509228
0.0045117313
0.0045144715
0.0045172809
0.0045199113
0.0045220576
0.0045234111
0.0045237333
0.0045229295
0.0045210881
0.004518458
0.0045153812
0.0045122076
0.0045092235
0.0045066143
0.004504463
0.0045027722
0.004501495
0.0045005606
0.0044998978
0.0044994408
0.0044991331
0.0044989232
0.0044988048
0.0044987228
0.00449886
0.0044988129
0.0044987779
0.0044987518
0.0044987324
0.0044987181
0.0044987075
0.0044986999
0.0044986944
0.0044986906
0.0044986883
0.0044986858
0.0044989232
0.0044990083
0.0044991234
0.0044992798
0.0044994929
0.0044997822
0.0045001753
0.0045007651
0.0045015965
0.0045026357
0.0045039563
0.0045055118
0.0045074064
0.0045097797
0.0045125905
0.0045157697
0.0045191713
0.0045225487
0.0045255638
0.004527831
0.0045289943
0.004528822
0.0045272876
0.004524591
0.0045211009
0.0045172549
0.0045134577
0.0045100091
0.0045070788
0.0045047196
0.0045029026
0.0045015542
0.0045005832
0.0044999037
0.004499438
0.004499125
0.0044989131
0.0044987943
0.004498716
0.0044989227
0.00449886
0.0044988132
0.0044987783
0.0044987522
0.0044987328
0.0044987185
0.0044987079
0.0044987001
0.0044986947
0.0044986909
0.0044986886
0.0044986859
0.0044990066
0.0044991197
0.0044992726
0.0044994802
0.0044997636
0.0045001506
0.0045006777
0.0045014717
0.0045025914
0.004503985
0.0045057494
0.0045078065
0.004510301
0.0045133982
0.0045170147
0.0045210275
0.0045252081
0.0045292045
0.004532571
0.0045348385
0.0045356179
0.0045347129
0.004532203
0.0045284361
0.004523924
0.004519204
0.0045147252
0.0045107862
0.004507527
0.0045049615
0.0045030239
0.0045016108
0.0045006076
0.0044999118
0.0044994348
0.004499116
0.0044989037
0.0044987854
0.0044987092
0.0044990059
0.0044989227
0.0044988604
0.0044988138
0.0044987789
0.0044987528
0.0044987334
0.0044987189
0.0044987082
0.0044987005
0.0044986951
0.0044986912
0.0044986889
0.0044986861
0.0044991173
0.0044992674
0.0044994701
0.0044997455
0.0045001243
0.0045006418
0.0045013472
0.0045024189
0.0045039308
0.004505802
0.0045081586
0.0045108803
0.0045141631
0.0045181942
0.0045228229
0.0045278426
0.0045329077
0.0045375329
0.0045411557
0.0045432367
0.0045433802
0.0045414581
0.0045376895
0.0045326127
0.004526908
0.00452121
0.0045159966
0.0045115463
0.0045079553
0.0045051895
0.0045031402
0.0045016687
0.0045006345
0.0044999184
0.0044994288
0.0044991066
0.0044988958
0.0044987758
0.0044987031
0.0044991163
0.0044990059
0.0044989232
0.0044988612
0.0044988147
0.0044987798
0.0044987536
0.0044987339
0.0044987193
0.0044987087
0.004498701
0.0044986954
0.0044986915
0.0044986891
0.0044986862
0.0044992641
0.0044994627
0.0044997311
0.0045000983
0.0045006039
0.0045012959
0.0045022412
0.0045036908
0.0045057377
0.004508254
0.0045113999
0.0045150021
0.0045193143
0.0045245358
0.0045304082
0.0045365962
0.0045425962
0.0045477709
0.0045514594
0.0045530944
0.0045523129
0.0045490728
0.0045437438
0.0045370997
0.0045300272
0.0045232517
0.0045172578
0.004512283
0.0045083646
0.0045054095
0.0045032568
0.0045017285
0.0045006582
0.0044999175
0.0044994209
0.0044990987
0.0044988847
0.0044987676
0.004498698
0.0044992626
0.0044991163
0.0044990066
0.0044989243
0.0044988625
0.0044988159
0.0044987808
0.0044987544
0.0044987346
0.00449872
0.0044987093
0.0044987014
0.0044986957
0.0044986918
0.0044986895
0.0044986864
0.0044994581
0.0044997207
0.0045000778
0.0045005673
0.0045012411
0.0045021687
0.004503438
0.0045054024
0.0045081798
0.0045115704
0.0045157655
0.0045205279
0.0045261672
0.004532868
0.0045401969
0.0045476297
0.0045544684
0.0045599455
0.0045633753
0.0045642517
0.0045622885
0.0045574948
0.0045503353
0.0045418649
0.0045332507
0.0045253068
0.0045184974
0.0045129957
0.0045087618
0.0045056277
0.0045033738
0.0045017814
0.0045006679
0.0044999115
0.004499415
0.0044990832
0.004498875
0.0044987607
0.004498694
0.0044994561
0.0044992627
0.0044991174
0.0044990083
0.0044989262
0.0044988642
0.0044988174
0.004498782
0.0044987552
0.0044987355
0.0044987209
0.0044987099
0.0044987018
0.004498696
0.0044986921
0.0044986899
0.0044986865
0.0044997142
0.004500063
0.0045005384
0.0045011895
0.0045020899
0.0045033352
0.0045050429
0.0045077079
0.0045114892
0.0045160663
0.0045216438
0.0045279126
0.0045352124
0.0045436488
0.0045525118
0.0045610264
0.0045683068
0.0045735757
0.004576268
0.0045760933
0.0045728663
0.0045665076
0.00455739
0.0045468641
0.0045365448
0.0045273559
0.0045197119
0.0045136919
0.0045091536
0.0045058427
0.0045034771
0.0045018098
0.0045006682
0.0044999096
0.0044993925
0.0044990694
0.0044988666
0.0044987552
0.004498691
0.0044997114
0.0044994561
0.0044992641
0.0044991197
0.0044990109
0.0044989287
0.0044988664
0.004498819
0.0044987832
0.0044987566
0.0044987368
0.0044987217
0.0044987103
0.004498702
0.0044986962
0.0044986924
0.0044986903
0.0044986867
0.0045000538
0.0045005177
0.0045011492
0.0045020175
0.0045032221
0.0045048965
0.0045072
0.0045108159
0.004515985
0.0045221642
0.0045295257
0.0045376849
0.0045469243
0.0045571511
0.0045672531
0.0045762032
0.0045830608
0.0045872913
0.0045886523
0.0045872983
0.0045831146
0.0045756252
0.0045647603
0.0045520429
0.0045398775
0.0045293889
0.0045209064
0.0045143767
0.0045095351
0.0045060328
0.0045035392
0.0045018227
0.004500676
0.0044998744
0.004499372
0.0044990573
0.0044988598
0.0044987512
0.0044986892
0.0045000498
0.0044997114
0.0044994581
0.0044992674
0.0044991234
0.0044990145
0.0044989318
0.0044988687
0.0044988208
0.0044987852
0.0044987584
0.0044987378
0.0044987221
0.0044987104
0.0044987022
0.0044986966
0.0044986928
0.0044986908
0.004498687
0.0045005047
0.0045011201
0.0045019607
0.004503121
0.004504734
0.0045069936
0.0045101019
0.0045150126
0.004522098
0.0045304026
0.0045399644
0.004550315
0.0045614911
0.0045730425
0.0045833837
0.0045913928
0.0045965433
0.0045991864
0.0045992691
0.0045967371
0.0045916711
0.0045839658
0.0045721758
0.0045573379
0.0045432233
0.0045314028
0.0045220802
0.0045150389
0.0045098742
0.0045061556
0.0045035773
0.0045018509
0.0045006184
0.0044998417
0.0044993535
0.0044990473
0.0044988547
0.0044987487
0.0044986887
0.0045004992
0.0045000498
0.0044997142
0.0044994627
0.0044992726
0.0044991285
0.0044990189
0.0044989351
0.0044988712
0.0044988238
0.0044987878
0.0044987598
0.0044987383
0.0044987222
0.0044987106
0.0044987025
0.004498697
0.0044986933
0.0044986913
0.0044986872
0.004501102
0.0045019198
0.0045030413
0.004504594
0.0045067583
0.0045098197
0.0045140091
0.0045206901
0.0045303789
0.0045413886
0.0045533999
0.0045658654
0.0045782866
0.0045897825
0.0045985027
0.0046050005
0.0046092774
0.0046109651
0.0046098184
0.0046058571
0.0045993665
0.0045907225
0.004579163
0.0045626721
0.0045465562
0.0045333819
0.0045232117
0.0045156323
0.0045101061
0.0045062425
0.0045036454
0.0045017546
0.0045005632
0.0044998115
0.004499338
0.0044990394
0.0044988512
0.0044987477
0.0044986894
0.0045010942
0.0045004992
0.0045000538
0.0044997207
0.0044994701
0.0044992798
0.0044991348
0.0044990236
0.0044989387
0.0044988757
0.0044988275
0.0044987896
0.0044987604
0.0044987382
0.0044987222
0.0044987108
0.0044987029
0.0044986974
0.0044986937
0.0044986919
0.0044986875
0.0045018945
0.0045029839
0.0045044823
0.0045065637
0.0045094785
0.004513633
0.0045192729
0.0045283523
0.0045414549
0.004555588
0.0045697471
0.0045833781
0.0045952095
0.0046049865
0.0046131506
0.0046193356
0.0046229484
0.0046235187
0.0046208719
0.0046151873
0.0046069544
0.0045968019
0.0045849447
0.0045679347
0.0045498217
0.0045352857
0.0045242365
0.0045160589
0.0045102846
0.0045063855
0.0045034819
0.0045016598
0.0045005127
0.0044997861
0.0044993254
0.0044990338
0.0044988494
0.0044987484
0.0044986915
0.0045018837
0.0045010942
0.0045005047
0.004500063
0.0044997311
0.0044994803
0.0044992887
0.0044991415
0.0044990288
0.0044989453
0.0044988809
0.0044988299
0.0044987903
0.0044987601
0.0044987381
0.0044987223
0.0044987112
0.0044987033
0.0044986979
0.0044986943
0.0044986925
0.0044986878
0.0045029484
0.0045044017
0.0045064082
0.004509202
0.0045131453
0.0045187739
0.0045263632
0.004538581
0.004555815
0.0045728304
0.0045877825
0.0046002706
0.0046110606
0.004621047
0.0046293556
0.0046351935
0.0046378747
0.004636985
0.0046325008
0.0046247988
0.0046145677
0.0046026432
0.00458966
0.004572924
0.0045529349
0.004537026
0.0045250058
0.0045164063
0.0045105649
0.0045061064
0.0045033175
0.0045015743
0.00450047
0.0044997651
0.004499316
0.0044990304
0.0044988495
0.0044987506
0.0044986948
0.0045029333
0.0045018837
0.004501102
0.0045005177
0.0045000778
0.0044997455
0.0044994929
0.0044992983
0.0044991489
0.0044990384
0.0044989528
0.0044988842
0.0044988307
0.0044987898
0.0044987597
0.0044987381
0.0044987226
0.0044987115
0.0044987037
0.0044986984
0.0044986949
0.0044986932
0.004498688
0.0045043521
0.0045062949
0.0045089869
0.0045127459
0.0045180921
0.0045256938
0.0045358441
0.0045518823
0.0045732707
0.0045915493
0.0046047625
0.0046170557
0.0046286562
0.0046392365
0.0046475676
0.00465275
0.0046541097
0.004651357
0.0046446694
0.0046346432
0.0046221724
0.0046082881
0.0045938362
0.0045773235
0.0045557557
0.0045383681
0.0045256529
0.0045169317
0.0045100881
0.0045058215
0.0045031726
0.0045015021
0.0045004343
0.0044997488
0.0044993098
0.0044990295
0.0044988515
0.0044987546
0.0044986993
0.0045043311
0.0045029333
0.0045018945
0.0045011201
0.0045005385
0.0045000983
0.0044997636
0.0044995063
0.0044993087
0.004499163
0.0044990492
0.004498957
0.0044988851
0.0044988298
0.0044987889
0.0044987595
0.0044987382
0.0044987229
0.0044987119
0.0044987042
0.004498699
0.0044986955
0.0044986939
0.0044986883
0.0045062255
0.0045088286
0.004512446
0.0045175222
0.0045247508
0.0045349479
0.0045482468
0.0045682863
0.0045920329
0.0046091159
0.0046225443
0.0046362106
0.0046488719
0.004659919
0.0046679733
0.0046720876
0.004671664
0.0046665975
0.0046572984
0.0046446062
0.0046296565
0.0046136759
0.0045976548
0.0045806503
0.0045578794
0.0045394921
0.0045265976
0.0045161206
0.004509597
0.0045055767
0.0045030503
0.0045014415
0.0045004061
0.0044997373
0.004499307
0.0044990312
0.0044988556
0.0044987602
0.0044987048
0.0045061963
0.0045043311
0.0045029484
0.0045019199
0.0045011492
0.0045005673
0.0045001243
0.0044997822
0.0044995204
0.004499329
0.0044991784
0.0044990547
0.004498958
0.0044988836
0.0044988283
0.0044987884
0.0044987594
0.0044987384
0.0044987232
0.0044987123
0.0044987047
0.0044986996
0.0044986961
0.0044986946
0.0044986885
0.0045087314
0.0045122268
0.004517097
0.0045239584
0.004533656
0.0045470919
0.0045637625
0.0045866876
0.0046098032
0.0046285021
0.0046431904
0.0046584364
0.0046721015
0.0046833569
0.0046907273
0.0046932694
0.0046905293
0.0046826248
0.0046702343
0.0046545093
0.0046368803
0.0046187679
0.0046011391
0.0045827723
0.0045594849
0.0045410664
0.0045252359
0.0045152802
0.0045091857
0.0045053702
0.0045029473
0.0045013928
0.0045003853
0.0044997308
0.0044993077
0.0044990356
0.0044988615
0.0044987674
0.0044987113
0.0045086909
0.0045061963
0.0045043521
0.004502984
0.0045019607
0.0045011896
0.0045006039
0.0045001506
0.0044998007
0.0044995499
0.0044993513
0.0044991854
0.0044990557
0.0044989558
0.0044988812
0.0044988273
0.004498788
0.0044987593
0.0044987385
0.0044987235
0.0044987128
0.0044987053
0.0044987002
0.0044986968
0.0044986953
0.0044986888
0.0045120912
0.0045167926
0.0045233565
0.0045325757
0.0045453655
0.0045623767
0.0045816765
0.0046043233
0.0046294988
0.0046513961
0.0046673566
0.0046842061
0.0046987166
0.004709805
0.0047159742
0.0047163417
0.0047106415
0.0046992538
0.0046832326
0.0046641556
0.0046437856
0.0046235478
0.0046039694
0.0045842867
0.0045616035
0.004538873
0.0045238169
0.0045145943
0.0045088388
0.0045051962
0.004502864
0.0045013561
0.0045003722
0.0044997295
0.0044993124
0.0044990424
0.0044988692
0.0044987762
0.0044987187
0.0045120353
0.0045086909
0.0045062255
0.0045044018
0.0045030413
0.0045020175
0.0045012411
0.0045006418
0.0045001753
0.0044998435
0.0044995824
0.0044993604
0.0044991862
0.0044990522
0.004498952
0.0044988794
0.0044988264
0.0044987876
0.0044987593
0.0044987387
0.0044987238
0.0044987132
0.0044987058
0.0044987008
0.0044986975
0.004498696
0.0044986889
0.004516605
0.0045229303
0.0045317439
0.0045439303
0.0045601954
0.0045801761
0.0045997758
0.0046227412
0.0046527509
0.0046785746
0.0046956374
0.0047140133
0.0047291023
0.0047395196
0.004743848
0.0047412866
0.0047317969
0.0047161667
0.004696027
0.0046734779
0.00465038
0.0046275803
0.0046062897
0.0045861814
0.0045584595
0.0045365546
0.0045226848
0.0045140155
0.004508547
0.004505055
0.0045028003
0.0045013316
0.0045003673
0.0044997341
0.00449932
0.0044990515
0.0044988786
0.0044987864
0.0044987269
0.004516528
0.0045120353
0.0045087314
0.004506295
0.0045044823
0.0045031211
0.0045020899
0.0045012959
0.0045006776
0.0045002369
0.0044998915
0.0044995942
0.0044993605
0.004499181
0.0044990464
0.004498949
0.0044988778
0.0044988255
0.0044987872
0.0044987591
0.0044987388
0.0044987241
0.0044987137
0.0044987064
0.0044987014
0.0044986981
0.0044986967
0.004498689
0.0045226716
0.0045311517
0.004542818
0.0045583844
0.0045776921
0.0045983183
0.0046175667
0.004644294
0.0046803775
0.0047108461
0.0047286942
0.0047483821
0.0047636628
0.0047727593
0.0047744169
0.0047679093
0.0047536023
0.0047330093
0.0047085334
0.0046825183
0.0046560993
0.0046309265
0.0046091549
0.0045826828
0.004555025
0.004534733
0.004521727
0.0045135297
0.0045083099
0.0045049459
0.0045027563
0.0045013201
0.0045003714
0.0044997426
0.0044993308