/*--------------------------------*- C++ -*----------------------------------*\
  =========                 |
  \\      /  F ield         | OpenFOAM: The Open Source CFD Toolbox
   \\    /   O peration     | Website:  https://openfoam.org
    \\  /    A nd           | Version:  8
     \\/     M anipulation  |
\*---------------------------------------------------------------------------*/
FoamFile
{
    version     2.0;
    format      ascii;
    class       volScalarField;
    location    "0.966377";
    object      omega;
}
// * * * * * * * * * * * * * * * * * * * * * * * * * * * * * * * * * * * * * //

dimensions      [0 0 -1 0 0 0 0];

internalField   nonuniform List<scalar> 
9200
(
0.0044984895
0.0044985008
0.0044985051
0.0044985103
0.0044985159
0.0044985186
0.004498518
0.0044985241
0.0044985278
0.0044985295
0.0044985239
0.0044985308
0.0044985335
0.0044985372
0.004498538
0.0044985284
0.004498536
0.0044985382
0.0044985405
0.0044985447
0.004498545
0.0044985317
0.00449854
0.0044985417
0.0044985439
0.0044985463
0.0044985517
0.0044985517
0.004498534
0.004498543
0.0044985444
0.0044985464
0.004498549
0.0044985523
0.0044985596
0.0044985589
0.0044985357
0.0044985451
0.0044985465
0.0044985487
0.0044985513
0.004498555
0.0044985594
0.0044985688
0.0044985672
0.0044985368
0.0044985466
0.0044985481
0.0044985505
0.0044985535
0.0044985573
0.0044985625
0.0044985682
0.00449858
0.004498577
0.0044985374
0.0044985475
0.0044985492
0.004498552
0.0044985554
0.0044985597
0.004498565
0.0044985717
0.0044985788
0.0044985933
0.0044985884
0.0044985379
0.0044985479
0.0044985499
0.0044985531
0.0044985571
0.0044985619
0.0044985677
0.0044985746
0.0044985831
0.0044985916
0.004498609
0.0044986015
0.0044985381
0.004498548
0.0044985502
0.0044985539
0.0044985584
0.0044985638
0.0044985702
0.0044985778
0.0044985866
0.0044985969
0.0044986067
0.0044986269
0.0044986162
0.0044985382
0.0044985477
0.0044985502
0.0044985543
0.0044985593
0.0044985653
0.0044985725
0.0044985809
0.0044985904
0.0044986011
0.0044986133
0.0044986242
0.0044986473
0.0044986325
0.0044985381
0.0044985473
0.00449855
0.0044985545
0.0044985599
0.0044985666
0.0044985745
0.0044985838
0.0044985943
0.004498606
0.0044986186
0.0044986325
0.0044986442
0.0044986699
0.0044986501
0.0044985379
0.0044985466
0.0044985496
0.0044985543
0.0044985602
0.0044985675
0.0044985762
0.0044985864
0.0044985981
0.0044986109
0.0044986247
0.0044986392
0.0044986545
0.0044986666
0.0044986946
0.0044986689
0.0044985376
0.0044985459
0.004498549
0.004498554
0.0044985602
0.004498568
0.0044985775
0.0044985887
0.0044986016
0.0044986159
0.0044986312
0.0044986472
0.0044986631
0.0044986795
0.0044986912
0.0044987211
0.0044986885
0.0044985373
0.0044985451
0.0044985483
0.0044985535
0.00449856
0.0044985683
0.0044985785
0.0044985906
0.0044986047
0.0044986206
0.0044986378
0.0044986557
0.0044986735
0.0044986905
0.0044987073
0.004498718
0.0044987489
0.0044987086
0.004498537
0.0044985443
0.0044985476
0.0044985529
0.0044985597
0.0044985683
0.0044985791
0.0044985922
0.0044986076
0.0044986251
0.0044986443
0.0044986645
0.0044986848
0.0044987041
0.0044987215
0.0044987379
0.0044987465
0.0044987777
0.0044987287
0.0044985367
0.0044985435
0.0044985469
0.0044985522
0.0044985592
0.0044985682
0.0044985795
0.0044985934
0.00449861
0.0044986292
0.0044986506
0.0044986735
0.0044986967
0.0044987189
0.004498739
0.0044987559
0.0044987708
0.0044987763
0.0044988068
0.0044987484
0.0044985364
0.0044985427
0.0044985461
0.0044985516
0.0044985587
0.0044985679
0.0044985797
0.0044985943
0.0044986121
0.0044986329
0.0044986566
0.0044986823
0.0044987089
0.0044987349
0.0044987585
0.0044987784
0.0044987936
0.0044988058
0.0044988069
0.0044988356
0.0044987672
0.004498536
0.0044985419
0.0044985454
0.0044985509
0.0044985581
0.0044985675
0.0044985797
0.004498595
0.0044986138
0.0044986362
0.0044986621
0.0044986908
0.0044987212
0.0044987515
0.0044987797
0.0044988038
0.0044988223
0.0044988343
0.0044988424
0.0044988378
0.0044988635
0.0044987846
0.0044985358
0.0044985412
0.0044985447
0.0044985502
0.0044985574
0.0044985671
0.0044985796
0.0044985955
0.0044986152
0.0044986391
0.0044986672
0.004498699
0.0044987333
0.0044987685
0.0044988021
0.0044988317
0.004498855
0.0044988704
0.0044988776
0.0044988799
0.0044988682
0.0044988898
0.0044988003
0.0044985355
0.0044985406
0.0044985441
0.0044985495
0.0044985568
0.0044985666
0.0044985794
0.0044985958
0.0044986164
0.0044986417
0.0044986719
0.0044987066
0.0044987451
0.0044987855
0.0044988253
0.0044988617
0.0044988914
0.0044989121
0.0044989225
0.0044989229
0.0044989177
0.0044988976
0.0044989139
0.0044988137
0.0044985352
0.00449854
0.0044985435
0.0044985489
0.0044985562
0.0044985661
0.0044985791
0.0044985959
0.0044986173
0.0044986439
0.004498676
0.0044987137
0.0044987563
0.0044988022
0.0044988489
0.0044988931
0.004498931
0.0044989592
0.0044989751
0.0044989782
0.0044989696
0.0044989551
0.0044989253
0.0044989352
0.0044988247
0.004498535
0.0044985395
0.0044985429
0.0044985483
0.0044985556
0.0044985656
0.0044985788
0.004498596
0.004498618
0.0044986457
0.0044986797
0.0044987203
0.004498767
0.0044988186
0.0044988726
0.0044989255
0.0044989731
0.0044990109
0.0044990351
0.0044990437
0.004499037
0.004499017
0.0044989915
0.0044989508
0.0044989533
0.004498833
0.0044985348
0.004498539
0.0044985424
0.0044985478
0.0044985551
0.0044985651
0.0044985784
0.0044985959
0.0044986186
0.0044986473
0.004498683
0.0044987262
0.004498777
0.0044988342
0.0044988958
0.0044989584
0.0044990171
0.0044990666
0.004499102
0.0044991194
0.0044991175
0.0044990981
0.0044990645
0.0044990262
0.0044989736
0.0044989677
0.0044988384
0.0044985346
0.0044985385
0.004498542
0.0044985473
0.0044985546
0.0044985646
0.0044985781
0.0044985958
0.004498619
0.0044986487
0.0044986859
0.0044987316
0.0044987862
0.004498849
0.0044989184
0.0044989911
0.0044990621
0.0044991255
0.0044991748
0.0044992047
0.0044992118
0.0044991961
0.0044991608
0.0044991112
0.0044990585
0.0044989931
0.0044989782
0.0044988408
0.0044985345
0.0044985382
0.0044985416
0.0044985468
0.0044985541
0.0044985642
0.0044985777
0.0044985957
0.0044986193
0.0044986498
0.0044986885
0.0044987365
0.0044987946
0.0044988629
0.0044989401
0.0044990233
0.0044991076
0.0044991866
0.0044992528
0.0044992988
0.0044993193
0.004499312
0.0044992786
0.0044992244
0.0044991565
0.0044990879
0.0044990091
0.0044989847
0.0044988403
0.0044985343
0.0044985378
0.0044985412
0.0044985465
0.0044985537
0.0044985638
0.0044985774
0.0044985956
0.0044986196
0.0044986508
0.0044986907
0.0044987408
0.0044988024
0.0044988759
0.0044989607
0.0044990545
0.0044991528
0.004499249
0.0044993346
0.0044994005
0.0044994391
0.0044994454
0.0044994191
0.0044993641
0.004499288
0.0044991996
0.0044991139
0.0044990213
0.0044989872
0.0044988369
0.0044985342
0.0044985375
0.0044985409
0.0044985462
0.0044985534
0.0044985634
0.0044985771
0.0044985954
0.0044986198
0.0044986516
0.0044986926
0.0044987447
0.0044988093
0.0044988878
0.00449898
0.0044990844
0.0044991972
0.0044993118
0.0044994192
0.0044995089
0.0044995706
0.0044995965
0.004499583
0.0044995324
0.0044994515
0.0044993505
0.00449924
0.0044991362
0.0044990296
0.0044989856
0.0044988309
0.004498534
0.0044985372
0.0044985406
0.0044985459
0.0044985532
0.0044985632
0.0044985768
0.0044985953
0.0044986199
0.0044986523
0.0044986943
0.0044987481
0.0044988156
0.0044988986
0.0044989979
0.0044991128
0.0044992402
0.0044993741
0.0044995054
0.0044996227
0.0044997135
0.0044997664
0.0044997736
0.0044997335
0.004499652
0.0044995401
0.0044994113
0.004499277
0.0044991546
0.0044990342
0.0044989802
0.0044988224
0.0044985339
0.0044985369
0.0044985403
0.0044985456
0.0044985529
0.004498563
0.0044985767
0.0044985952
0.00449862
0.0044986528
0.0044986958
0.0044987511
0.0044988213
0.0044989085
0.0044990145
0.0044991394
0.0044992814
0.0044994351
0.004499592
0.0044997403
0.0044998659
0.0044999536
0.0044999909
0.0044999716
0.0044998973
0.004499778
0.0044996297
0.0044994697
0.0044993102
0.0044991689
0.0044990349
0.0044989714
0.0044988117
0.0044985338
0.0044985366
0.0044985399
0.0044985451
0.0044985526
0.0044985628
0.0044985767
0.0044985952
0.0044986201
0.0044986533
0.004498697
0.0044987537
0.0044988263
0.0044989174
0.0044990297
0.0044991642
0.0044993203
0.004499494
0.0044996777
0.0044998601
0.0045000254
0.004500155
0.0045002318
0.004500244
0.0045001886
0.0045000722
0.0044999091
0.0044997196
0.0044995252
0.0044993394
0.0044991791
0.0044990321
0.0044989595
0.0044987992
0.0044985337
0.0044985364
0.0044985397
0.0044985447
0.004498552
0.0044985624
0.0044985766
0.0044985954
0.0044986204
0.0044986538
0.0044986981
0.0044987561
0.0044988307
0.0044989255
0.0044990434
0.0044991871
0.0044993568
0.0044995503
0.0044997615
0.0044999801
0.0045001893
0.0045003676
0.0045004935
0.0045005492
0.0045005252
0.0045004233
0.0045002559
0.004500043
0.0044998087
0.0044995774
0.0044993646
0.0044991853
0.004499026
0.0044989448
0.0044987852
0.0044985336
0.0044985362
0.0044985394
0.0044985444
0.0044985515
0.0044985618
0.0044985761
0.0044985954
0.0044986209
0.0044986545
0.0044986992
0.0044987581
0.0044988347
0.0044989326
0.0044990559
0.004499208
0.0044993907
0.0044996035
0.0044998424
0.0045000985
0.0045003548
0.0045005884
0.0045007736
0.0045008863
0.0045009092
0.0045008363
0.0045006758
0.0045004476
0.0045001782
0.0044998957
0.004499626
0.0044993856
0.0044991878
0.004499017
0.0044989279
0.0044987699
0.0044985336
0.004498536
0.0044985392
0.0044985441
0.0044985511
0.004498561
0.0044985752
0.0044985949
0.0044986211
0.0044986555
0.0044987005
0.00449876
0.0044988381
0.004498939
0.0044990671
0.004499227
0.0044994219
0.0044996533
0.0044999196
0.0045002137
0.0045005197
0.0045008142
0.0045010687
0.0045012527
0.0045013402
0.0045013153
0.0045011784
0.0045009459
0.0045006466
0.004500314
0.0044999798
0.0044996705
0.0044994026
0.0044991868
0.0044990055
0.0044989091
0.0044987539
0.0044985335
0.0044985359
0.004498539
0.0044985439
0.0044985508
0.0044985605
0.0044985742
0.0044985938
0.0044986205
0.004498656
0.0044987022
0.0044987622
0.0044988414
0.0044989446
0.0044990771
0.0044992441
0.0044994504
0.0044996994
0.0044999924
0.0045003244
0.0045006817
0.0045010419
0.0045013747
0.0045016443
0.0045018153
0.0045018607
0.0045017696
0.0045015512
0.0045012323
0.0045008515
0.0045004492
0.0045000602
0.0044997108
0.0044994157
0.0044991827
0.004498992
0.004498889
0.0044987372
0.0044985335
0.0044985358
0.0044985389
0.0044985437
0.0044985505
0.0044985601
0.0044985734
0.0044985923
0.004498619
0.0044986553
0.0044987031
0.004498765
0.0044988449
0.0044989499
0.004499086
0.0044992595
0.0044994763
0.0044997419
0.0045000603
0.0045004296
0.0045008388
0.0045012681
0.004501687
0.0045020556
0.00450233
0.0045024709
0.0045024531
0.0045022738
0.004501954
0.0045015334
0.0045010607
0.004500583
0.0045001366
0.0044997468
0.0044994251
0.004499176
0.0044989767
0.004498868
0.0044987204
0.0044985334
0.0044985357
0.0044985388
0.0044985435
0.0044985502
0.0044985597
0.0044985729
0.0044985912
0.0044986169
0.0044986533
0.0044987023
0.0044987665
0.0044988493
0.0044989555
0.0044990942
0.0044992732
0.0044994996
0.0044997806
0.0045001231
0.0045005284
0.0045009895
0.0045014899
0.004502001
0.0045024808
0.0045028782
0.0045031415
0.0045032293
0.0045031219
0.0045028287
0.0045023858
0.0045018475
0.0045012728
0.0045007142
0.0045002086
0.0044997784
0.0044994312
0.004499167
0.0044989602
0.0044988465
0.0044987036
0.0044985357
0.0044985334
0.0044985387
0.0044985434
0.00449855
0.0044985594
0.0044985724
0.0044985905
0.0044986153
0.0044986503
0.0044986997
0.0044987656
0.0044988516
0.0044989621
0.0044991028
0.0044992859
0.0044995205
0.0044998157
0.0045001807
0.0045006204
0.0045011322
0.0045017045
0.004502312
0.0045029132
0.0045034522
0.0045038658
0.0045040951
0.0045040999
0.0045038709
0.0045034343
0.0045028448
0.0045021723
0.004501486
0.004500842
0.0045002759
0.004499806
0.0044994342
0.0044991562
0.0044989428
0.0044988249
0.004498687
0.0044985387
0.0044985357
0.0044985335
0.0044985433
0.0044985498
0.0044985591
0.004498572
0.0044985898
0.0044986143
0.0044986479
0.0044986954
0.0044987622
0.0044988508
0.0044989657
0.0044991128
0.0044992989
0.0044995396
0.0044998473
0.0045002332
0.0045007053
0.004501266
0.0045019097
0.004502616
0.0045033465
0.0045040435
0.0045046347
0.004505044
0.0045052077
0.0045050916
0.0045047029
0.0045040898
0.0045033285
0.0045025055
0.0045016987
0.0045009657
0.0045003385
0.0044998296
0.0044994347
0.004499144
0.004498925
0.0044988035
0.004498671
0.0044985432
0.0044985387
0.0044985357
0.0044985335
0.0044985497
0.0044985589
0.0044985716
0.0044985892
0.0044986133
0.0044986464
0.0044986918
0.004498756
0.0044988463
0.004498965
0.0044991183
0.0044993137
0.0044995589
0.004499876
0.0045002807
0.0045007829
0.0045013904
0.0045021036
0.0045029092
0.0045037744
0.0045046431
0.0045054374
0.0045060658
0.0045064402
0.004506496
0.0045062121
0.0045056194
0.0045047931
0.0045038341
0.0045028447
0.0045019093
0.0045010845
0.0045003962
0.0044998495
0.0044994329
0.0044991307
0.004498907
0.0044987826
0.0044986557
0.0044985497
0.0044985432
0.0044985387
0.0044985358
0.0044985336
0.0044985588
0.0044985713
0.0044985887
0.0044986125
0.0044986451
0.0044986897
0.0044987507
0.0044988375
0.0044989593
0.0044991182
0.0044993222
0.0044995812
0.0044999048
0.0045003237
0.0045008535
0.0045015048
0.0045022849
0.0045031887
0.0045041912
0.0045052419
0.0045062615
0.0045071473
0.0045077872
0.004508083
0.0045079762
0.0045074677
0.0045066201
0.0045055414
0.0045043581
0.0045031871
0.0045021163
0.0045011978
0.0045004491
0.0044998661
0.0044994293
0.0044991168
0.0044988891
0.0044987625
0.0044986412
0.0044985587
0.0044985497
0.0044985433
0.0044985388
0.0044985359
0.0044985336
0.0044985712
0.0044985883
0.0044986118
0.0044986439
0.0044986878
0.0044987477
0.0044988296
0.0044989466
0.0044991108
0.0044993233
0.0044995947
0.0044999384
0.0045003662
0.0045009176
0.0045016093
0.0045024529
0.0045034521
0.0045045921
0.0045058313
0.0045070945
0.0045082726
0.0045092335
0.004509844
0.0045100014
0.0045096629
0.0045088626
0.0045077034
0.0045063306
0.0045048966
0.0045035301
0.0045023184
0.0045013053
0.0045004974
0.0044998797
0.0044994242
0.0044991025
0.0044988717
0.0044987434
0.0044986276
0.0044985711
0.0044985587
0.0044985497
0.0044985434
0.0044985389
0.004498536
0.0044985337
0.0044985881
0.0044986112
0.0044986429
0.0044986861
0.004498745
0.0044988253
0.0044989351
0.0044990925
0.0044993138
0.0044995977
0.0044999602
0.0045004163
0.0045009802
0.0045017046
0.0045026073
0.0045036978
0.004504973
0.0045064037
0.0045079237
0.0045094245
0.0045107596
0.0045117634
0.0045122846
0.0045122243
0.0045115689
0.0045103985
0.0045088654
0.0045071555
0.0045054454
0.0045038709
0.0045025141
0.0045014066
0.004500541
0.0044998904
0.0044994177
0.0044990881
0.0044988551
0.0044987256
0.004498615
0.004498588
0.0044985711
0.0044985588
0.0044985498
0.0044985435
0.004498539
0.0044985362
0.0044985338
0.0044986109
0.0044986422
0.0044986846
0.0044987425
0.0044988214
0.0044989289
0.0044990759
0.0044992873
0.0044995852
0.0044999659
0.0045004501
0.0045010536
0.0045017966
0.0045027484
0.0045039248
0.0045053309
0.0045069524
0.0045087373
0.0045105848
0.0045123426
0.0045138185
0.004514812
0.0045151589
0.0045147787
0.0045137039
0.0045120746
0.0045101007
0.00450801
0.0045059997
0.004504207
0.0045027024
0.0045015012
0.00450058
0.0044998985
0.0044994104
0.0044990743
0.0044988398
0.004498709
0.0044986033
0.0044986108
0.004498588
0.0044985712
0.0044985589
0.00449855
0.0044985437
0.0044985392
0.0044985364
0.0044985339
0.0044986417
0.0044986836
0.0044987405
0.0044988179
0.0044989233
0.0044990669
0.0044992633
0.0044995467
0.0044999491
0.0045004584
0.0045011048
0.0045019039
0.0045028837
0.0045041333
0.0045056639
0.0045074722
0.0045095248
0.0045117362
0.0045139578
0.0045159805
0.0045175593
0.0045184599
0.0045185174
0.0045176889
0.0045160736
0.0045138863
0.0045114015
0.0045088873
0.004506555
0.0045045355
0.0045028819
0.0045015889
0.0045006144
0.0044999044
0.0044994031
0.0044990617
0.0044988259
0.0044986937
0.0044985927
0.0044986415
0.0044986108
0.0044985881
0.0044985713
0.0044985591
0.0044985502
0.0044985439
0.0044985394
0.0044985366
0.004498534
0.0044986829
0.004498739
0.0044988149
0.0044989182
0.004499059
0.0044992507
0.0044995117
0.0044998922
0.004500436
0.0045011161
0.0045019819
0.0045030403
0.0045043321
0.0045059713
0.0045079593
0.0045102775
0.0045128623
0.0045155795
0.0045182157
0.0045204918
0.0045221046
0.0045227925
0.0045224088
0.0045209749
0.0045186791
0.0045158262
0.0045127584
0.0045097797
0.0045071063
0.004504854
0.0045030516
0.0045016693
0.0045006446
0.0044999091
0.004499397
0.0044990508
0.0044988133
0.0044986795
0.0044985832
0.0044986826
0.0044986415
0.0044986109
0.0044985883
0.0044985716
0.0044985594
0.0044985505
0.0044985441
0.0044985397
0.0044985369
0.0044985342
0.004498738
0.0044988128
0.004498914
0.0044990517
0.0044992395
0.0044994945
0.0044998413
0.0045003559
0.0045010878
0.0045019993
0.0045031584
0.0045045598
0.0045062634
0.0045084116
0.0045109882
0.0045139486
0.0045171827
0.0045204875
0.004523565
0.0045260528
0.0045275881
0.0045278967
0.0045268783
0.0045246502
0.004521516
0.0045178827
0.0045141601
0.0045106787
0.0045076484
0.0045051596
0.0045032103
0.0045017426
0.004500672
0.0044999145
0.0044993925
0.0044990411
0.0044988014
0.0044986666
0.0044985746
0.0044987376
0.0044986826
0.0044986417
0.0044986113
0.0044985887
0.004498572
0.0044985597
0.0044985508
0.0044985444
0.0044985399
0.0044985372
0.0044985343
0.0044988114
0.004498911
0.0044990458
0.0044992291
0.0044994789
0.0044998187
0.0045002828
0.0045009788
0.0045019639
0.0045031873
0.0045047379
0.0045065943
0.0045088408
0.0045116527
0.004514983
0.0045187445
0.0045227582
0.004526726
0.004530244
0.0045328566
0.0045341486
0.0045338567
0.0045319638
0.0045287208
0.0045245737
0.0045200409
0.0045155936
0.0045115755
0.0045081762
0.00450545
0.0045033579
0.0045018106
0.0045006991
0.004499922
0.0044993888
0.0044990314
0.0044987901
0.0044986551
0.0044985671
0.0044988109
0.0044987376
0.0044986829
0.0044986422
0.0044986118
0.0044985892
0.0044985724
0.0044985601
0.0044985511
0.0044985447
0.0044985403
0.0044985375
0.0044985345
0.0044989091
0.0044990414
0.0044992207
0.0044994642
0.004499797
0.0045002521
0.004500875
0.0045018133
0.0045031436
0.004504787
0.0045068609
0.0045093214
0.0045122834
0.0045159573
0.0045202447
0.0045249911
0.0045299172
0.0045345994
0.0045385091
0.0045410979
0.0045419169
0.0045407465
0.0045376927
0.0045331833
0.0045278353
0.0045222822
0.0045170444
0.0045124608
0.0045086847
0.0045057244
0.0045034969
0.0045018767
0.0045007277
0.0044999304
0.0044993842
0.0044990211
0.0044987799
0.0044986454
0.0044985595
0.0044989082
0.0044988109
0.004498738
0.0044986836
0.0044986429
0.0044986125
0.0044985898
0.0044985729
0.0044985605
0.0044985515
0.0044985451
0.0044985406
0.0044985378
0.0044985346
0.0044990387
0.0044992146
0.0044994523
0.0044997759
0.0045002214
0.0045008309
0.0045016653
0.0045029339
0.0045047349
0.0045069455
0.0045097188
0.0045129812
0.0045168834
0.0045216679
0.0045271529
0.0045330793
0.0045390265
0.0045444157
0.0045485897
0.0045509291
0.004550985
0.0045486144
0.0045440766
0.0045380231
0.0045312767
0.0045245847
0.0045184968
0.0045133257
0.0045091719
0.0045059855
0.0045036316
0.0045019434
0.004500757
0.0044999358
0.0044993771
0.0044990111
0.0044987714
0.0044986349
0.0044985529
0.0044990375
0.0044989082
0.0044988114
0.004498739
0.0044986846
0.0044986439
0.0044986133
0.0044985905
0.0044985734
0.004498561
0.004498552
0.0044985456
0.0044985409
0.0044985382
0.0044985348
0.0044992107
0.0044994437
0.004499759
0.004500191
0.0045007865
0.0045016028
0.0045027228
0.0045044414
0.0045068863
0.0045098643
0.0045135707
0.0045178959
0.0045230236
0.0045292166
0.0045361573
0.0045434277
0.0045504205
0.0045563896
0.0045605817
0.0045623662
0.0045613422
0.0045574526
0.004551103
0.0045432132
0.0045348675
0.0045269239
0.004519936
0.0045141654
0.0045096406
0.0045062389
0.0045037647
0.0045020089
0.0045007805
0.0044999339
0.0044993693
0.0044990029
0.0044987592
0.004498626
0.0044985473
0.004499209
0.0044990375
0.0044989091
0.0044988128
0.0044987405
0.0044986861
0.0044986451
0.0044986143
0.0044985912
0.0044985742
0.0044985618
0.0044985526
0.0044985459
0.0044985412
0.0044985385
0.004498535
0.0044994383
0.0044997468
0.0045001669
0.0045007436
0.0045015386
0.0045026348
0.0045041408
0.0045064736
0.0045098004
0.0045138204
0.0045187662
0.0045244887
0.0045311854
0.0045391057
0.0045477121
0.0045563595
0.0045642248
0.0045704357
0.0045742424
0.0045751173
0.0045727588
0.0045671411
0.0045587214
0.0045487134
0.0045385721
0.0045292761
0.0045213523
0.0045149818
0.0045100966
0.0045064866
0.004503893
0.0045020635
0.0045007902
0.0044999291
0.0044993637
0.0044989856
0.0044987484
0.0044986185
0.004498543
0.0044994359
0.004499209
0.0044990387
0.004498911
0.0044988149
0.0044987425
0.0044986878
0.0044986464
0.0044986153
0.0044985923
0.0044985752
0.0044985624
0.0044985529
0.0044985462
0.0044985416
0.004498539
0.0044985352
0.0044997391
0.0045001496
0.0045007098
0.0045014781
0.0045025423
0.0045040165
0.0045060457
0.0045092161
0.0045137581
0.0045191916
0.0045257639
0.0045332869
0.004541915
0.0045518073
0.0045620885
0.0045718297
0.004580036
0.0045858421
0.0045886991
0.0045883497
0.0045846202
0.0045773547
0.0045668197
0.0045544702
0.0045423532
0.0045316228
0.0045227441
0.0045157793
0.0045105397
0.0045067227
0.0045040017
0.0045020941
0.0045007939
0.0044999291
0.0044993383
0.0044989701
0.0044987392
0.0044986127
0.0044985399
0.0044997358
0.0044994359
0.0044992107
0.0044990414
0.004498914
0.0044988179
0.004498745
0.0044986897
0.0044986479
0.0044986169
0.0044985938
0.0044985761
0.0044985628
0.0044985532
0.0044985465
0.004498542
0.0044985395
0.0044985355
0.0045001387
0.0045006853
0.0045014306
0.0045024572
0.0045038834
0.0045058697
0.0045086104
0.0045129211
0.0045191436
0.0045264783
0.0045351273
0.0045448699
0.0045556818
0.0045675031
0.0045790039
0.0045889875
0.004596536
0.0046009271
0.0046022099
0.0046005123
0.0045957726
0.0045874484
0.0045751854
0.0045604181
0.0045461769
0.0045339536
0.0045241101
0.004516552
0.0045109595
0.0045069259
0.0045040709
0.004502115
0.0045008061
0.0044998888
0.004499315
0.0044989566
0.0044987317
0.0044986085
0.0044985382
0.0045001341
0.0044997358
0.0044994383
0.0044992146
0.0044990458
0.0044989182
0.0044988214
0.0044987477
0.0044986918
0.0044986503
0.004498619
0.0044985949
0.0044985766
0.004498563
0.0044985534
0.0044985468
0.0044985424
0.00449854
0.0044985357
0.0045006701
0.0045013963
0.0045023902
0.0045037644
0.0045056783
0.0045083645
0.0045120668
0.0045179343
0.0045264687
0.0045362986
0.0045474513
0.0045596807
0.0045725407
0.004585614
0.0045971362
0.0046057503
0.0046113801
0.0046142227
0.0046141258
0.0046110312
0.0046050838
0.0045963688
0.0045834458
0.0045664771
0.004550011
0.0045362529
0.0045254328
0.0045172825
0.0045113261
0.0045070652
0.0045041253
0.004502152
0.0045007392
0.0044998509
0.004499294
0.0044989454
0.0044987261
0.004498606
0.004498538
0.0045006636
0.0045001341
0.0044997391
0.0044994437
0.0044992207
0.0044990517
0.0044989233
0.0044988253
0.0044987507
0.0044986954
0.0044986533
0.0044986205
0.0044985954
0.0044985767
0.0044985632
0.0044985537
0.0044985473
0.0044985429
0.0044985406
0.004498536
0.004501375
0.004502342
0.0045036703
0.0045055128
0.0045080873
0.0045117323
0.0045167293
0.0045247216
0.004536369
0.0045493014
0.0045631269
0.0045776113
0.0045915762
0.0046042307
0.004613891
0.0046212186
0.0046259897
0.0046277423
0.0046262025
0.0046214216
0.0046137677
0.0046037412
0.0045909774
0.0045725384
0.0045538035
0.0045384802
0.0045266848
0.0045179309
0.0045115924
0.0045071832
0.0045042098
0.0045020387
0.0045006748
0.0044998164
0.0044992765
0.0044989367
0.0044987225
0.0044986053
0.0044985392
0.0045013659
0.0045006636
0.0045001387
0.0044997468
0.0044994524
0.0044992291
0.004499059
0.0044989289
0.0044988297
0.004498756
0.0044986997
0.0044986553
0.0044986211
0.0044985954
0.0044985767
0.0044985634
0.0044985541
0.0044985478
0.0044985435
0.0044985412
0.0044985363
0.0045023121
0.0045036026
0.0045053809
0.0045078555
0.0045113315
0.0045162826
0.0045230188
0.0045338659
0.0045495178
0.0045658839
0.0045818768
0.0045974021
0.0046103767
0.0046214653
0.0046307945
0.0046378031
0.0046417825
0.0046422032
0.0046388925
0.0046320917
0.0046223961
0.0046105695
0.0045970491
0.0045784246
0.0045574615
0.0045405908
0.0045278147
0.0045184246
0.0045118278
0.0045073559
0.0045040158
0.0045019274
0.0045006165
0.0044997872
0.0044992623
0.0044989306
0.0044987209
0.0044986064
0.0044985419
0.0045022994
0.0045013659
0.0045006701
0.0045001496
0.004499759
0.0044994642
0.0044992395
0.0044990669
0.0044989351
0.0044988375
0.0044987622
0.0044987023
0.004498656
0.0044986209
0.0044985952
0.0044985768
0.0044985638
0.0044985546
0.0044985483
0.0044985441
0.0044985419
0.0044985366
0.0045035607
0.0045052856
0.0045076716
0.0045110009
0.0045157116
0.0045224235
0.0045314824
0.0045460031
0.0045663314
0.0045856302
0.0046021792
0.0046162364
0.004628622
0.0046401192
0.0046496163
0.0046561828
0.0046590332
0.0046577167
0.0046522431
0.0046430809
0.0046310522
0.0046171541
0.004602177
0.0045838337
0.0045608943
0.0045425173
0.0045287068
0.0045188725
0.0045121606
0.0045070223
0.0045038223
0.0045018284
0.0045005671
0.0044997633
0.0044992518
0.0044989272
0.0044987214
0.0044986094
0.0044985461
0.0045035429
0.0045022994
0.004501375
0.0045006853
0.0045001669
0.0044997759
0.0044994789
0.0044992507
0.0044990759
0.0044989466
0.0044988463
0.0044987656
0.0044987031
0.0044986555
0.0044986204
0.0044985952
0.0044985771
0.0044985642
0.0044985551
0.0044985489
0.0044985447
0.0044985427
0.004498537
0.0045052269
0.0045075376
0.0045107455
0.0045152359
0.0045216257
0.0045306856
0.0045427433
0.004561606
0.0045863403
0.0046065869
0.0046213194
0.0046357199
0.0046491323
0.0046613046
0.0046707848
0.0046765347
0.004677796
0.0046742708
0.0046662013
0.0046543093
0.0046396654
0.0046234895
0.0046067767
0.0045883762
0.0045639878
0.0045440624
0.0045295239
0.0045194884
0.0045115879
0.0045066867
0.0045036538
0.0045017445
0.004500526
0.0044997447
0.004499245
0.0044989265
0.0044987241
0.0044986144
0.0044985515
0.0045052021
0.0045035429
0.0045023121
0.0045013963
0.0045007098
0.004500191
0.004499797
0.0044994945
0.0044992633
0.0044990925
0.0044989593
0.0044988508
0.0044987665
0.0044987022
0.0044986545
0.0044986201
0.0044985953
0.0044985774
0.0044985646
0.0044985556
0.0044985495
0.0044985454
0.0044985435
0.0044985373
0.0045074555
0.0045105582
0.0045148781
0.0045209512
0.0045295824
0.0045416895
0.0045573232
0.004580517
0.0046072961
0.0046266702
0.0046420462
0.0046581032
0.0046727358
0.0046854107
0.0046945115
0.0046989554
0.0046980838
0.004691811
0.0046806484
0.0046656195
0.0046480908
0.0046294984
0.0046109908
0.0045917248
0.0045663676
0.0045454455
0.0045306174
0.0045185112
0.0045110091
0.0045064012
0.004503511
0.0045016741
0.0045004934
0.0044997317
0.0044992421
0.0044989289
0.0044987292
0.0044986212
0.0044985581
0.004507421
0.0045052021
0.0045035607
0.004502342
0.0045014306
0.0045007436
0.0045002214
0.0044998187
0.0044995117
0.0044992873
0.0044991108
0.004498965
0.0044988516
0.004498765
0.0044987005
0.0044986538
0.00449862
0.0044985954
0.0044985777
0.0044985651
0.0044985562
0.0044985502
0.0044985461
0.0044985443
0.0044985376
0.0045104431
0.004514618
0.0045204441
0.0045286486
0.0045401856
0.0045559921
0.0045752718
0.0046013007
0.004627679
0.0046493568
0.0046662089
0.0046841116
0.0046998829
0.0047127438
0.0047209799
0.0047235206
0.0047198731
0.0047102063
0.0046953735
0.0046767964
0.0046561806
0.0046351685
0.0046148514
0.004594017
0.0045682686
0.0045472343
0.0045289777
0.0045175214
0.0045105282
0.0045061591
0.0045033908
0.0045016174
0.0045004695
0.0044997244
0.0044992435
0.0044989344
0.0044987364
0.0044986299
0.0044985657
0.0045103954
0.004507421
0.0045052269
0.0045036026
0.0045023902
0.0045014781
0.0045007865
0.0045002522
0.0044998412
0.0044995467
0.0044993138
0.0044991182
0.0044989657
0.0044988493
0.0044987622
0.0044986992
0.0044986533
0.0044986199
0.0044985956
0.0044985781
0.0044985656
0.0044985568
0.0044985509
0.0044985469
0.0044985451
0.0044985378
0.0045144575
0.0045200819
0.0045279352
0.0045389197
0.0045540066
0.0045737127
0.0045956022
0.0046211834
0.0046507549
0.0046762301
0.0046945438
0.0047142984
0.0047310124
0.0047436072
0.0047503637
0.0047502686
0.0047430415
0.004729196
0.0047100878
0.0046876414
0.0046639128
0.0046405044
0.0046180406
0.0045958301
0.0045705965
0.0045446128
0.0045273101
0.0045167173
0.0045101205
0.0045059553
0.0045032934
0.0045015748
0.0045004545
0.0044997233
0.0044992493
0.0044989426
0.0044987456
0.0044986402
0.0044985744
0.0045143915
0.0045103954
0.0045074555
0.0045052856
0.0045036703
0.0045024572
0.0045015386
0.004500831
0.0045002828
0.0044998922
0.0044995852
0.0044993233
0.0044991183
0.0044989621
0.0044988449
0.00449876
0.0044986981
0.0044986528
0.0044986198
0.0044985957
0.0044985784
0.0044985661
0.0044985574
0.0044985516
0.0044985476
0.0044985459
0.004498538
0.0045198596
0.0045274292
0.0045379421
0.0045523446
0.0045712503
0.0045939477
0.0046158807
0.0046427264
0.0046780966
0.0047081858
0.0047277592
0.0047492457
0.0047665836
0.0047783086
0.0047828044
0.004779119
0.0047672892
0.0047484071
0.0047245292
0.0046981316
0.004671306
0.0046450455
0.0046207693
0.0045980013
0.0045669031
0.0045419075
0.004525981
0.0045160354
0.0045097776
0.0045057897
0.0045032188
0.0045015463
0.0045004491
0.0044997289
0.0044992584
0.0044989534
0.0044987566
0.0044986521
0.004498584
0.0045197688
0.0045143915
0.0045104431
0.0045075376
0.0045053809
0.0045037644
0.0045025423
0.0045016028
0.004500875
0.0045003559
0.0044999491
0.0044995977
0.0044993222
0.0044991128
0.0044989555
0.0044988414
0.0044987581
0.004498697
0.0044986523
0.0044986196
0.0044985958
0.0044985788
0.0044985666
0.0044985581
0.0044985522
0.0044985483
0.0044985466
0.0044985381
0.0045271228
0.0045372451
0.0045510524
0.0045691924
0.004591196
0.0046142572
0.0046365953
0.0046680875
0.0047106383
0.0047461842
0.0047666441
0.0047895724
0.0048070819
0.0048171368
0.0048183099
0.0048097595
0.0047921506
0.0047674926
0.0047386643
0.0047083031
0.0046777353
0.004648941
0.0046239963
0.0045939602
0.0045629632
0.0045397742
0.0045248508
0.0045154633
0.0045094986
0.0045056614
0.0045031673
0.004501533
0.0045004541
0.0044997391