/*--------------------------------*- C++ -*----------------------------------*\
  =========                 |
  \\      /  F ield         | OpenFOAM: The Open Source CFD Toolbox
   \\    /   O peration     | Website:  https://openfoam.org
    \\  /    A nd           | Version:  8
     \\/     M anipulation  |
\*---------------------------------------------------------------------------*/
FoamFile
{
    version     2.0;
    format      ascii;
    class       volScalarField;
    location    "0.966377";
    object      p;
}
// * * * * * * * * * * * * * * * * * * * * * * * * * * * * * * * * * * * * * //

dimensions      [0 2 -2 0 0 0 0];

internalField   nonuniform List<scalar> 
9200
(
8.7620864e-06
8.1096928e-06
2.7872539e-05
8.0954093e-06
2.482841e-05
4.5498098e-05
6.9438566e-06
2.424582e-05
4.0045622e-05
6.4731734e-05
5.7813911e-06
2.1049422e-05
3.8340617e-05
5.7209326e-05
8.4917113e-05
4.523668e-06
1.7584189e-05
3.3025841e-05
5.4278231e-05
7.5157081e-05
0.00010697642
3.2482387e-06
1.3792972e-05
2.7343823e-05
4.6510022e-05
7.0957537e-05
9.4767276e-05
0.00013125238
2.0030544e-06
9.9174123e-06
2.1227263e-05
3.8256457e-05
6.0565263e-05
8.9173721e-05
0.00011630632
0.00015822194
8.2151139e-07
6.1143218e-06
1.5038999e-05
2.9471795e-05
4.9545239e-05
7.5848275e-05
0.00010911651
0.00014019794
0.00018832197
-2.750246e-07
2.4934222e-06
9.0136811e-06
2.0656799e-05
3.7878068e-05
6.1723784e-05
9.2479216e-05
0.00013113541
0.00016683516
0.00022199867
-1.2718913e-06
-8.7482243e-07
3.3152316e-06
1.212967e-05
2.6228476e-05
4.6814597e-05
7.4849347e-05
0.00011071182
0.00015555637
0.00019662491
0.00025970106
-2.1773896e-06
-3.949034e-06
-1.9546341e-06
4.1082498e-06
1.5013168e-05
3.198291e-05
5.6274924e-05
8.9078559e-05
0.00013078344
0.00018271913
0.00022998227
0.00030188152
-3.0009232e-06
-6.7290022e-06
-6.7438658e-06
-3.2766457e-06
4.5127512e-06
1.7762408e-05
3.7851572e-05
6.6319333e-05
0.00010455381
0.00015294324
0.00021297219
0.00026733169
0.00034899249
-3.7399614e-06
-9.2257477e-06
-1.1038573e-05
-9.961747e-06
-5.1087848e-06
4.5074581e-06
2.0252023e-05
4.3804072e-05
7.6991587e-05
0.00012142451
0.00017744974
0.00024667487
0.00030910506
0.00040148144
-4.3967868e-06
-1.1443069e-05
-1.4848275e-05
-1.5933393e-05
-1.3776836e-05
-7.5799755e-06
3.9188092e-06
2.2369981e-05
4.9788611e-05
8.8334661e-05
0.00013984673
0.00020457422
0.00028419719
0.00035573809
0.00045978463
-4.9758544e-06
-1.3393674e-05
-1.8195848e-05
-2.1211345e-05
-2.1481627e-05
-1.8413819e-05
-1.0900963e-05
2.5648973e-06
2.3976808e-05
5.5742845e-05
0.00010039239
0.00015998678
0.00023460307
0.0003259184
0.00040766518
0.00052431956
-5.4826309e-06
-1.5095845e-05
-2.1113318e-05
-2.5836316e-05
-2.8257336e-05
-2.7991454e-05
-2.4108296e-05
-1.5309962e-05
2.304251e-07
2.4911778e-05
6.159644e-05
0.00011321422
0.00018202561
0.00026783938
0.0003722243
0.00046531299
0.0005954769
-5.9229973e-06
-1.6570359e-05
-2.3638398e-05
-2.9861217e-05
-3.4165571e-05
-3.6366327e-05
-3.5710379e-05
-3.1140457e-05
-2.1083521e-05
-3.331869e-06
2.4995153e-05
6.7276182e-05
0.00012686096
0.00020616446
0.00030460352
0.00042350348
0.00052909304
0.00067361224
-6.3029217e-06
-1.7838783e-05
-2.5811011e-05
-3.3344773e-05
-3.9282977e-05
-4.3626237e-05
-4.5785156e-05
-4.4946451e-05
-3.983211e-05
-2.8539984e-05
-8.400233e-06
2.4032682e-05
7.2712787e-05
0.00014141129
0.00023262993
0.00034523264
0.00048014236
0.00059939379
0.00075903775
-6.6282422e-06
-1.8922409e-05
-2.767096e-05
-3.634695e-05
-4.3692378e-05
-4.9877015e-05
-5.445325e-05
-5.6836732e-05
-5.6050583e-05
-5.0555076e-05
-3.8040403e-05
-1.5280952e-05
2.1822241e-05
7.7849093e-05
0.00015696962
0.00026167732
0.00039007908
0.00054251931
0.0006765721
0.00085201455
-6.9047666e-06
-1.9841635e-05
-2.925643e-05
-3.8925869e-05
-4.7476719e-05
-5.5230883e-05
-6.185684e-05
-6.697313e-05
-6.9885804e-05
-6.9429764e-05
-6.3734241e-05
-4.9987885e-05
-2.4303059e-05
1.8162515e-05
8.2649475e-05
0.00017367521
0.00029359277
0.00043950764
0.00061099781
0.00076094512
0.00095274594
-7.1381732e-06
-2.0615593e-05
-3.0603094e-05
-4.1135895e-05
-5.0715145e-05
-5.9798631e-05
-6.8144692e-05
-7.5543483e-05
-8.155088e-05
-8.5356779e-05
-8.5552153e-05
-7.9849637e-05
-6.482465e-05
-3.5810591e-05
1.2863817e-05
8.7110476e-05
0.00019171037
0.00032869437
0.00049389138
0.00068591927
0.00085278239
0.0010613716
-7.3338766e-06
-2.1261874e-05
-3.1743543e-05
-4.3026628e-05
-5.3480742e-05
-6.3684732e-05
-7.3462152e-05
-8.2742444e-05
-9.1290751e-05
-9.861211e-05
-0.00010374051
-0.00010495201
-9.9436679e-05
-8.3026624e-05
-5.0152316e-05
5.760485e-06
9.1272986e-05
0.00021130644
0.00036733213
0.00055360626
0.00076759544
0.00095229858
0.0011779632
-7.4973467e-06
-2.1796465e-05
-3.2707138e-05
-4.4642479e-05
-5.5839406e-05
-6.6984615e-05
-7.7945022e-05
-8.8758739e-05
-9.9357664e-05
-0.00010951145
-0.00011865109
-0.00012560192
-0.0001282337
-0.00012308426
-0.00010509541
-6.7668848e-05
-3.2752437e-06
9.5235594e-05
0.00023274767
0.00040988593
0.00061902461
0.0008563007
0.0010596474
0.0013025213
-7.6341067e-06
-2.2233641e-05
-3.3520064e-05
-4.6022682e-05
-5.7849526e-05
-6.9783444e-05
-8.1716261e-05
-9.3767407e-05
-0.00010599483
-0.00011837888
-0.00013068622
-0.00014224056
-0.00015158779
-0.00015607349
-0.00015142933
-0.00013154527
-8.8674998e-05
-1.4315199e-05
9.9167994e-05
0.00025637564
0.0004567625
0.00069050763
0.00095226468
0.0011749165
0.0014349736
-7.7495915e-06
-2.2585944e-05
-3.4205345e-05
-4.7201514e-05
-5.9562143e-05
-7.2155929e-05
-8.4884648e-05
-9.7925737e-05
-0.00011142655
-0.00012552584
-0.00014025882
-0.00015537467
-0.00017004255
-0.0001824311
-0.00018921615
-0.00018514465
-0.00016288557
-0.00011344204
-2.7358957e-05
0.00010331758
0.00028259006
0.00050839026
0.00076839769
0.0010556657
0.0012981241
0.0015751788
-7.838676e-06
-2.2864087e-05
-3.4783129e-05
-4.8208702e-05
-6.1021434e-05
-7.4166755e-05
-8.7544767e-05
-0.00010137176
-0.00011585306
-0.00013123838
-0.00014776525
-0.00016552568
-0.00018422803
-0.00020281459
-0.0002189521
-0.00022847215
-0.00022493504
-0.00019961752
-0.00014219483
-4.2332166e-05
0.000108001
0.00031183713
0.00056520761
0.00085300878
0.0011666253
0.0014292164
0.0017229413
-7.8897985e-06
-2.3077214e-05
-3.5271151e-05
-4.9069805e-05
-6.2265315e-05
-7.5871385e-05
-8.9777784e-05
-0.00010422446
-0.0001194488
-0.00013577059
-0.00015356879
-0.0001731949
-0.00019479698
-0.00021799875
-0.00024142263
-0.00026207884
-0.00027473955
-0.00027154346
-0.00024221464
-0.00017506513
-5.903731e-05
0.00011363106
0.00034461271
0.00062765013
0.00094461568
0.0012852024
0.0015680727
0.0018779755
-7.9022266e-06
-2.3233653e-05
-3.5685592e-05
-4.9806777e-05
-6.3326081e-05
-7.7317021e-05
-9.1652668e-05
-0.00010658498
-0.00012236284
-0.00013934238
-0.000157991
-0.00017884186
-0.00020237995
-0.00022879507
-0.00025757181
-0.00028688419
-0.00031286811
-0.00032895506
-0.00032562067
-0.00029097394
-0.00021196209
-7.7074157e-05
0.00012078524
0.00038150428
0.00069615883
0.0010434459
0.0014113889
0.0017145134
0.0020398137
-7.8838844e-06
-2.3344777e-05
-3.6040766e-05
-5.0439248e-05
-6.4231258e-05
-7.8543542e-05
-9.3227591e-05
-0.00010853838
-0.00012472069
-0.00014214027
-0.00016130889
-0.00018287282
-0.00020755635
-0.00023599227
-0.00026839707
-0.00030400604
-0.00034032958
-0.00037230923
-0.00039186568
-0.00038765292
-0.00034608953
-0.00025288633
-9.6220073e-05
0.00013003629
0.00042313016
0.00077118271
0.0011496772
0.0015451115
0.0018682593
0.0022080772
-7.8323475e-06
-2.3426567e-05
-3.6342369e-05
-5.0983694e-05
-6.5005433e-05
-7.958472e-05
-9.4551262e-05
-0.00011015566
-0.00012662676
-0.0001443198
-0.00016375579
-0.00018563663
-0.00021083848
-0.00024031692
-0.00027487165
-0.00031464235
-0.00035838011
-0.00040274167
-0.00044130243
-0.0004645137
-0.00045892976
-0.00040859298
-0.00029823295
-0.00011632414
0.00014156833
0.00046993308
0.00085311127
0.0012634405
0.0016862376
0.0020288753
0.0023824376
-7.7275414e-06
-2.3481079e-05
-3.6586113e-05
-5.1443209e-05
-6.5669147e-05
-8.0470719e-05
-9.5664568e-05
-0.00011149554
-0.0001281671
-0.00014600895
-0.00016552462
-0.00018742567
-0.00021266546
-0.00024241184
-0.00027789528
-0.00031997956
-0.00036847003
-0.00042169226
-0.0004754814
-0.00052229492
-0.0005494355
-0.00054086684
-0.00047886427
-0.00034762235
-0.0001365451
0.00015616727
0.00052224131
0.0009422322
0.0013848133
0.0018345594
0.0021960222
0.0025624118
-7.5871578e-06
-2.3450551e-05
-3.6772627e-05
-5.1805405e-05
-6.622465e-05
-8.1226639e-05
-9.6603928e-05
-0.0001126067
-0.00012941191
-0.00014731179
-0.00016677236
-0.00018847981
-0.00021340396
-0.00024282829
-0.00027826898
-0.00032112708
-0.00037211214
-0.00043100017
-0.0004963547
-0.000562057
-0.00061751328
-0.00064721806
-0.00063292025
-0.00055585404
-0.0003999269
-0.00015590488
0.00017504273
0.00058066481
0.0010387922
0.0015137722
0.0019897462
0.0023693717
0.002747484
-7.4217974e-06
-2.343956e-05
-3.6785655e-05
-5.207819e-05
-6.665342e-05
-8.185266e-05
-9.7399442e-05
-0.00011353223
-0.00013041847
-0.0001483119
-0.00016762495
-0.00018899224
-0.00021335303
-0.00024202623
-0.00027668443
-0.00031907961
-0.00037069875
-0.00043265728
-0.00050572788
-0.00058563138
-0.0006638252
-0.00072673531
-0.00075710851
-0.00073454943
-0.00063887056
-0.00045427217
-0.00017354922
0.00019886222
0.00064612379
0.0011429775
0.0016502133
0.0021514585
0.0025484364
0.0029371121
-7.2456775e-06
-2.343918e-05
-3.6819586e-05
-5.2062394e-05
-6.6984825e-05
-8.2319789e-05
-9.8047828e-05
-0.00011430739
-0.00013123704
-0.00014907624
-0.00016818182
-0.00018911578
-0.0002127513
-0.00024037941
-0.00027372203
-0.00031470525
-0.00036543633
-0.00042833443
-0.00050558411
-0.00059506481
-0.00069010815
-0.00078039617
-0.00085040592
-0.00087981886
-0.00084587613
-0.00072742852
-0.0005097022
-0.00018835207
0.0002283184
0.00071919517
0.0012549475
0.001793986
0.0023193942
0.0027327083
0.0031307359
-7.0710357e-06
-2.3446125e-05
-3.6859839e-05
-5.2076208e-05
-6.6908131e-05
-8.2686478e-05
-9.8505514e-05
-0.00011492326
-0.00013190831
-0.00014966292
-0.00016852098
-0.00018896901
-0.00021178521
-0.00023818388
-0.0002698543
-0.00030875463
-0.00035738743
-0.00041951267
-0.00049792754
-0.00059253494
-0.0006989608
-0.00081016445
-0.00091343494
-0.00098987312
-0.0010159081
-0.00096665243
-0.00082067358
-0.00056507597
-0.00019916246
0.00026439096
0.00080011352
0.0013748132
0.0019448709
0.002493159
0.0029216498
0.0033277855
-6.9100339e-06
-2.3460298e-05
-3.6899334e-05
-5.2096515e-05
-6.6881461e-05
-8.2498276e-05
-9.8880367e-05
-0.00011531551
-0.00013241512
-0.00015011835
-0.00016870924
-0.00018864283
-0.00021059698
-0.0002356686
-0.00026545318
-0.00030184543
-0.00034757674
-0.00040745652
-0.00048466932
-0.00058049268
-0.00069316307
-0.00081882293
-0.00094811015
-0.0010647905
-0.001146187
-0.0011655528
-0.0010963107
-0.00091754069
-0.000619125
-0.00020479457
0.00030792313
0.00088922156
0.0015026073
0.0021025293
0.0026722801
0.003114703
0.0035276877
-6.7732056e-06
-2.3480812e-05
-3.6936685e-05
-5.2113925e-05
-6.6868873e-05
-8.2392394e-05
-9.8528474e-05
-0.00011566711
-0.00013266447
-0.00015041379
-0.00016879918
-0.00018821383
-0.00020929309
-0.00023300557
-0.00026080308
-0.00029444565
-0.00033680557
-0.00039323739
-0.0004674605
-0.00056130295
-0.00067562021
-0.00080957201
-0.00095734535
-0.0011062439
-0.0012360437
-0.0013200955
-0.0013286355
-0.0012340103
-0.0010167525
-0.00067049035
-0.00020410086
0.00035967579
0.00098690437
0.0016382723
0.0022666452
0.0028562625
0.0033112973
0.0037298728
-6.6687535e-06
-2.3502961e-05
-3.6970611e-05
-5.2129069e-05
-6.6856043e-05
-8.2314973e-05
-9.8304694e-05
-0.00011508738
-0.00013295202
-0.00015041734
-0.0001687465
-0.00018774141
-0.00020796168
-0.00023032086
-0.00025611394
-0.00028690786
-0.00032561149
-0.00037781466
-0.00044758029
-0.00053703687
-0.00064913723
-0.00078579328
-0.00094469661
-0.0011171865
-0.0012867197
-0.0014286226
-0.0015121061
-0.0015047186
-0.0013785902
-0.0011167988
-0.00071770474
-0.00019594708
0.00042035337
0.0010934235
0.0017816704
0.0024368928
0.003044584
0.0035108563
0.003933781
-6.6093505e-06
-2.352083e-05
-3.699937e-05
-5.214306e-05
-6.684426e-05
-8.2245107e-05
-9.8130667e-05
-0.0001146984
-0.00013206743
-0.00015058901
-0.00016836729
-0.00018716094
-0.00020667017
-0.00022771735
-0.00025153628
-0.0002794891
-0.00031441825
-0.00036195582
-0.00042615433
-0.00050946038
-0.00061627292
-0.00075081995
-0.00091404666
-0.0011014788
-0.0013010606
-0.0014916965
-0.0016437741
-0.0017223788
-0.0016929838
-0.0015285791
-0.001215981
-0.00075923868
-0.00017922896
0.00049056421
0.001208925
0.0019325846
0.0026128288
0.0032367038
0.0037128059
0.0041388668
-2.3531835e-05
-6.609307e-06
-3.7021493e-05
-5.2156049e-05
-6.6835788e-05
-8.2184855e-05
-9.7976622e-05
-0.00011438872
-0.00013145679
-0.00014930685
-0.00016835654
-0.0001862195
-0.00020532765
-0.00022527302
-0.00024719009
-0.00027237154
-0.00030353868
-0.00034620669
-0.00040418651
-0.00048007488
-0.00057926721
-0.00070776261
-0.00086932656
-0.0010635115
-0.0012831238
-0.0015118299
-0.0017232278
-0.0018824379
-0.0019506693
-0.0018922195
-0.0016822083
-0.0013124457
-0.00079354221
-0.00015291204
0.00057079805
0.0013334432
0.0020907189
0.0027939688
0.0034320704
0.0039165805
0.0043446031
-3.703586e-05
-2.3531853e-05
-6.6686335e-06
-5.2167839e-05
-6.6831622e-05
-8.2137531e-05
-9.7845422e-05
-0.00011411691
-0.00013096462
-0.00014840747
-0.00016656442
-0.00018594186
-0.00020359019
-0.00022286381
-0.00024316495
-0.00026569335
-0.00029319179
-0.00033097319
-0.00038242456
-0.00045010211
-0.00054001381
-0.00065939649
-0.00081428966
-0.0010078624
-0.0012377594
-0.001493113
-0.0017523769
-0.0019831618
-0.0021451694
-0.0021962795
-0.0021008039
-0.0018374336
-0.0014042267
-0.00081908462
-0.00011605999
0.00066142205
0.001466903
0.0022556864
0.0029797927
0.0036301289
0.0041216289
0.0045504861
-5.2178166e-05
-3.703589e-05
-2.3520885e-05
-6.7730321e-06
-6.6832339e-05
-8.2104623e-05
-9.7741489e-05
-0.0001138868
-0.0001305345
-0.00014767729
-0.00016529582
-0.00018350427
-0.00020293732
-0.00022002673
-0.00023929526
-0.00025955976
-0.00028353922
-0.000316522
-0.00036141277
-0.00042048748
-0.00050005558
-0.00060810096
-0.00075235075
-0.00093900972
-0.0011702073
-0.001440764
-0.0017351146
-0.0020255231
-0.0022730411
-0.0024320512
-0.0024580105
-0.0023167099
-0.001991973
-0.0014892925
-0.00083439729
-6.7859168e-05
0.00076267134
0.0016091216
0.0024270384
0.003169759
0.0038303289
0.0043274173
0.0047560387
-6.6838303e-05
-5.2178147e-05
-3.7021596e-05
-2.3503053e-05
-6.9098359e-06
-8.2087057e-05
-9.7666638e-05
-0.00011370415
-0.00013017147
-0.00014704072
-0.00016426066
-0.00018177095
-0.00019968892
-0.00021885908
-0.00023496381
-0.00025375948
-0.00027475138
-0.00030300112
-0.00034151295
-0.00039193043
-0.00046059901
-0.00055583743
-0.00068648537
-0.0008611131
-0.0010857395
-0.0013606648
-0.0016768684
-0.0020129167
-0.0023339184
-0.0025939844
-0.0027426161
-0.002734135
-0.0025375251
-0.0021433548
-0.0015655992
-0.00083811284
-7.6409905e-06
0.000874645
0.001759816
0.0026043097
0.0033633152
0.0040321276
0.0045334288
0.0049608106
-8.2085481e-05
-6.6838167e-05
-5.2167802e-05
-3.6999573e-05
-2.3480943e-05
-7.0708431e-06
-9.7622035e-05
-0.00011357102
-0.00012988285
-0.00014650447
-0.00016335927
-0.00018035142
-0.00019737541
-0.00021459659
-0.00023309996
-0.00024746528
-0.00026659093
-0.0002906711
-0.00032291288
-0.00036490704
-0.00042254746
-0.00050415861
-0.00061918298
-0.0007778654
-0.00098937019
-0.0012589276
-0.0015840869
-0.0019507405
-0.0023303219
-0.0026799115
-0.0029465676
-0.0030757772
-0.0030223865
-0.0027604887
-0.0022889762
-0.0016311446
-0.00082900144
6.5103495e-05
0.00099730713
0.00191862
0.0027869891
0.0035598976
0.0042349818
0.0047391705
0.0051643833
-9.7608517e-05
-8.2085457e-05
-6.6831953e-05
-5.2156044e-05
-3.6970959e-05
-2.3460475e-05
-7.2455207e-06
-0.00011348874
-0.00012967095
-0.00014607768
-0.0001626006
-0.00017911599
-0.00019547555
-0.00021156106
-0.00022757928
-0.00024466328
-0.00025789891
-0.00027937889
-0.00030589226
-0.00033967158
-0.00038652852
-0.00045424111
-0.0005524426
-0.00069240966
-0.0008856451
-0.0011415234
-0.0014637302
-0.0018458626
-0.0022672929
-0.0026910191
-0.0030654019
-0.0033307118
-0.0034297736
-0.0033199704
-0.0029825449
-0.0024261692
-0.0016840216
-0.00080600158
0.00015071278
0.0011304942
0.0020851077
0.0029745149
0.0037589187
0.004438352
0.0049442044
0.0053663721
-0.00011345829
-9.7608353e-05
-8.2087011e-05
-6.6831061e-05
-5.2143171e-05
-3.6937235e-05
-2.3446368e-05
-7.4217144e-06
-0.00012953717
-0.00014576288
-0.00016199606
-0.00017807666
-0.00019382237
-0.00020906223
-0.00022365661
-0.00023756645
-0.00025386668
-0.0002675525
-0.0002903688
-0.00031656208
-0.00035289389
-0.00040691957
-0.00048780076
-0.00060731156
-0.00077850789
-0.0010139927
-0.0013228077
-0.001706041
-0.0021518778
-0.0026315707
-0.003098426
-0.0034916793
-0.0037455801
-0.0038021382
-0.0036235966
-0.0032004117
-0.0025522702
-0.0017224696
-0.00076824596
0.00024935618
0.0012739371
0.0022587794
0.0031662779
0.0039597697
0.0046417795
0.0051481617
0.0055664035
-0.00012948262
-0.00011345844
-9.762158e-05
-8.2104653e-05
-6.6835173e-05
-5.212941e-05
-3.6900153e-05
-2.3439525e-05
-7.5872005e-06
-0.00014556152
-0.0001615484
-0.00017724767
-0.0001924321
-0.00020688726
-0.00022042179
-0.00023256916
-0.00024465143
-0.00026173555
-0.00027435408
-0.00029557801
-0.00032204931
-0.00036268589
-0.00042637011
-0.00052457584
-0.00067123755
-0.00088124575
-0.0011679952
-0.0015393676
-0.001992503
-0.0025084408
-0.0030486009
-0.0035555024
-0.003959266
-0.0041894863
-0.0041896919
-0.003929536
-0.0034106607
-0.0026646923
-0.0017449201
-0.00071507234
0.00036105304
0.0014272628
0.002438972
0.0033615827
0.0041619513
0.0048449415
0.0053506423
0.0057641056
-0.00014547484
-0.00012948261
-0.00011348921
-9.7666006e-05
-8.2137798e-05
-6.6843755e-05
-5.2114636e-05
-3.6861007e-05
-2.3440055e-05
-7.7277641e-06
-0.00016125909
-0.00017663193
-0.00019132213
-0.0002050587
-0.00021760372
-0.00022845045
-0.0002381757
-0.00024962587
-0.00026602901
-0.00027419479
-0.00029408698
-0.00032203536
-0.00036883995
-0.00044568475
-0.00056644372
-0.00074744833
-0.0010053491
-0.0013537781
-0.0017983266
-0.002330488
-0.0029221608
-0.0035232024
-0.0040645411
-0.0044677653
-0.0046598295
-0.0045885657
-0.0042336974
-0.0036098079
-0.0027609969
-0.001750027
-0.0006460105
0.00048566681
0.0015898947
0.0026248654
0.003559833
0.0043652003
0.0050474031
0.0055510511
0.0059592041
-0.00016112956
-0.00014547496
-0.00012953715
-0.0001135719
-9.7740874e-05
-8.2185564e-05
-6.6855845e-05
-5.2097762e-05
-3.68212e-05
-2.3451264e-05
-7.8327769e-06
-0.00017623099
-0.00019049547
-0.00020359811
-0.00021523125
-0.00022487755
-0.00023272045
-0.00024164205
-0.00025146698
-0.00026283286
-0.00026581737
-0.00028520157
-0.00031583099
-0.00037160097
-0.00046609786
-0.0006159831
-0.0008401219
-0.00115666
-0.0015786329
-0.0021078333
-0.002728029
-0.0033997763
-0.0040597557
-0.0046269484
-0.005015722
-0.0051530609
-0.0049942552
-0.0045317264
-0.0037944106
-0.0028389486
-0.0017366665
-0.00056080147
0.00062277287
0.0017609803
0.00281587
0.0037608562
0.0045690219
0.005248198
0.0057487988
0.0061516293
-0.00017604642
-0.00016112935
-0.00014556191
-0.00012967103
-0.00011370559
-9.7845072e-05
-8.2246502e-05
-6.6869214e-05
-5.2078179e-05
-3.6787826e-05
-2.3482117e-05
-7.8844698e-06
-0.00018995369
-0.00020250797
-0.00021333426
-0.00022187298
-0.0002280161
-0.0002345604
-0.00024134799
-0.00024501697
-0.00025050795
-0.00024817588
-0.00026778549
-0.000303119
-0.00037153894
-0.00048946263
-0.00067667156
-0.00095457459
-0.0013423158
-0.0018511368
-0.0024770653
-0.0031936957
-0.0039479302
-0.0046619333
-0.0052430301
-0.0056005081
-0.0056646862
-0.0054017072
-0.0048191228
-0.0039611527
-0.0028965364
-0.0017039784
-0.00045957818
0.00077155992
0.0019398852
0.0030121123
0.0039642452
0.0047718399
0.0054463193
0.0059441355
0.0063506889
-0.00018969854
-0.00017604629
-0.00016125852
-0.00014576366
-0.00012988318
-0.00011388901
-9.7976831e-05
-8.2317318e-05
-6.6882592e-05
-5.2065286e-05
-3.6775478e-05
-2.3427922e-05
-7.9028246e-06
-0.00020178959
-0.00021191596
-0.00021946595
-0.00022411926
-0.00022830039
-0.00023242404
-0.00023265413
-0.00022853418
-0.00022783438
-0.0002196525
-0.00024098321
-0.00028380435
-0.00036973668
-0.00051844157
-0.0007530934
-0.0010974826
-0.0015709436
-0.0021812398
-0.0029161815
-0.003736408
-0.0045728886
-0.0053324053
-0.0059117851
-0.0062182452
-0.0061893136
-0.0058054445
-0.0050913553
-0.0041068931
-0.0029320453
-0.0016516061
-0.00034299722
0.00093148233
0.0021270173
0.0032133674
0.004167722
0.0049719519
0.0056427327
0.0061481909
0.0065599382
-0.00020144481
-0.00018969832
-0.00017623067
-0.00016154768
-0.00014607907
-0.00013017226
-0.00011412012
-9.8131758e-05
-8.2395964e-05
-6.6910325e-05
-5.2082201e-05
-3.6589457e-05
-2.3346306e-05
-7.8903878e-06
-0.00021097677
-0.00021766262
-0.0002210055
-0.00022317492
-0.00022453777
-0.00022171387
-0.00021330531
-0.00020066652
-0.00019283928
-0.0001788306
-0.00020407827
-0.00025817609
-0.00036796712
-0.00055672348
-0.00085118994
-0.0012771432
-0.0018528326
-0.002580313
-0.003436209
-0.0043651738
-0.0052801998
-0.0060725396
-0.0066307182
-0.0068637784
-0.0067207593
-0.0061997003
-0.0053439382
-0.0042287745
-0.0029443692
-0.0015798711
-0.00021139066
0.0011033707
0.0023222852
0.0034161598
0.0043684924
0.0051715022
0.0058522437
0.0063621782
0.0067738638
-0.00021051838
-0.00020144459
-0.00018995312
-0.00017663167
-0.00016199556
-0.00014650673
-0.00013053601
-0.00011439323
-9.8307006e-05
-8.2503355e-05
-6.6988367e-05
-5.18103e-05
-3.6345858e-05
-2.323541e-05
-7.8392799e-06
-0.00021646327
-0.00021866932
-0.00021909796
-0.00021804672
-0.00021206816
-0.0001997798
-0.00018189164
-0.0001591686
-0.00014377367
-0.00012434729
-0.00015658954
-0.00022707166
-0.00036890787
-0.00060928773
-0.00097857604
-0.0015037284
-0.0022000895
-0.0030611417
-0.0040488436
-0.0050887483
-0.0060743048
-0.0068820984
-0.0073957024
-0.0075307271
-0.0072521826
-0.0065785142
-0.0055725775
-0.0043246197
-0.0029332428
-0.0014887067
-6.3313246e-05
0.0012873052
0.0025208308
0.0036160929
0.0045701854
0.005392314
0.0060714939
0.006581959
0.0069923699
-0.00021586925
-0.00021051798
-0.00020178899
-0.0001904948
-0.00017724789
-0.00016260076
-0.00014704418
-0.00013096719
-0.00011470455
-9.8532368e-05
-8.2693409e-05
-6.6658049e-05
-5.1448472e-05
-3.6044443e-05
-2.3079226e-05
-7.7502388e-06
-0.00021711333
-0.00021602778
-0.00021287366
-0.00020409235
-0.00018791827
-0.00016510164
-0.00013613885
-0.00010197855
-7.8814146e-05
-5.4870895e-05
-9.8444725e-05
-0.00019207409
-0.00037640684
-0.00068275996
-0.0011448622
-0.0017895455
-0.0026267595
-0.003637831
-0.0047661515
-0.0059152084
-0.0069581169
-0.0077589578
-0.0082009371
-0.0082115884
-0.0077761752
-0.0069359028
-0.0057736589
-0.0043932487
-0.0028979488
-0.001375795
0.00010162234
0.0014767568
0.0027165614
0.0038190227
0.0048046151
0.0056237332
0.0062975224
0.0068071558
0.0072153783
-0.00021633705
-0.00021586881
-0.00021097566
-0.00020250723
-0.0001913218
-0.00017807789
-0.00016336063
-0.00014768232
-0.0001314608
-0.00011509553
-9.8886302e-05
-8.2328222e-05
-6.6229805e-05
-5.0989332e-05
-3.5689519e-05
-2.2866369e-05
-7.6348211e-06
-0.00021397356
-0.00020897065
-0.00019771324
-0.00017809605
-0.000150462
-0.00011532617
-7.3497592e-05
-2.6701496e-05
3.9702366e-06
3.0666831e-05
-3.0143964e-05
-0.00015576903
-0.00039585813
-0.00078578389
-0.0013620075
-0.0021492973
-0.0031488714
-0.0043256073
-0.0056001641
-0.0068514365
-0.0079325947
-0.0086989294
-0.0090389732
-0.0088977735
-0.0082849221
-0.0072664414
-0.0059446904
-0.004432972
-0.002834961
-0.0012402251
0.00027489163
0.0016635421
0.0029182978
0.0040701974
0.0050510917
0.0058632913
0.0065295029
0.0070376163
0.0074427668
-0.00021294282
-0.00021633668
-0.00021646204
-0.0002119144
-0.00020359767
-0.00019243269
-0.00017911884
-0.00016426376
-0.00014841447
-0.00013207334
-0.00011567767
-9.851306e-05
-8.1861952e-05
-6.5674906e-05
-5.0445293e-05
-3.5275396e-05
-2.2588524e-05
-7.4981513e-06
-0.00020635152
-0.00019289351
-0.00017021924
-0.0001383399
-9.7167467e-05
-4.772379e-05
8.6754137e-06
6.9161651e-05
0.00010634434
0.00013299175
4.6994976e-05
-0.00012211819
-0.0004346039
-0.00092944717
-0.0016447184
-0.0026002851
-0.0037843902
-0.00514049
-0.0065623401
-0.0079025456
-0.0089963965
-0.0096956638
-0.0099006344
-0.0095796966
-0.008770873
-0.0075658909
-0.0060826273
-0.0044386351
-0.0027425079
-0.001092859
0.00044571441
0.0018602178
0.0031884924
0.0043364678
0.0053070933
0.0061093781
0.0067673129
0.0072731217
0.0076743439
-0.00020502797
-0.00021294238
-0.00021711231
-0.0002176609
-0.00021333277
-0.00020505914
-0.00019382454
-0.00018035649
-0.00016530123
-0.00014931623
-0.00013296031
-0.00011532803
-9.8056264e-05
-8.1236831e-05
-6.5011859e-05
-4.9813271e-05
-3.4787767e-05
-2.223656e-05
-7.334796e-06
-0.00018964652
-0.00016425958
-0.00012860187
-8.2137032e-05
-2.5212975e-05
4.0758327e-05
0.00011323584
0.00018810539
0.00022996719
0.00025226914
0.00013047706
-9.6866587e-05
-0.0005024082
-0.001127803
-0.0020108122
-0.0031625525
-0.0045530363
-0.0060988068
-0.0076628891
-0.009071366
-0.01014562
-0.010740377
-0.010774937
-0.010247518
-0.0092276311
-0.0078294317
-0.0061801888
-0.0044071082
-0.0026340971
-0.00094775106
0.00063136208
0.0021513975
0.0034782366
0.0046139052
0.0055700043
0.0063619023
0.0070106831
0.0075134249
0.0079099546
-0.00018798458
-0.00020502731
-0.00021397236
-0.00021866799
-0.00021946432
-0.00021523049
-0.00020688927
-0.00019548001
-0.00018177886
-0.00016657269
-0.00015060135
-0.00013267474
-0.00011493671
-9.7408911e-05
-8.048181e-05
-6.4238406e-05
-4.9076807e-05
-3.4210469e-05
-2.1799775e-05
-7.1392327e-06
-0.00016023196
-0.00012121677
-7.0085725e-05
-6.4866823e-06
6.8616126e-05
0.00015344767
0.00024319389
0.00033285452
0.00037618423
0.00038776531
0.00021623558
-8.803561e-05
-0.00061207906
-0.0013983798
-0.0024815729
-0.0038589117
-0.0054759391
-0.007216513
-0.0089100939
-0.010358016
-0.01137327
-0.011821475
-0.011649857
-0.010892394
-0.0096481974
-0.0080470972
-0.0062321718
-0.0043547684
-0.0025279384
-0.00078170778
0.00094483317
0.0024683398
0.0037811156
0.0048985758
0.0058398503
0.0066205086
0.0072593268
0.0077582382
0.0081496451
-0.00015814629
-0.00018798371
-0.00020634967
-0.00021602628
-0.00022100451
-0.00022187218
-0.00021760453
-0.00020906658
-0.00019738288
-0.00018351563
-0.00016836843
-0.00015043187
-0.00013242635
-0.00011432187
-9.6614541e-05
-7.9596676e-05
-6.3334012e-05
-4.8216295e-05
-3.3525785e-05
-2.1265637e-05
-6.9059866e-06
-0.00011621017
-6.0933454e-05
8.4918618e-06
9.1922032e-05
0.00018804353
0.00029388619
0.00040196169
0.00050609709
0.00054568006
0.00053752259
0.0002981294
-0.00010660701
-0.00078009759
-0.0017627497
-0.0030820283
-0.0047148288
-0.0065750513
-0.0085084149
-0.010309737
-0.011759064
-0.01266843
-0.012925268
-0.012514063
-0.011504843
-0.010019328
-0.0082106287
-0.0062578776
-0.0043051324
-0.0023934665
-0.00044561463
0.0012926318
0.0028006934
0.0040915166
0.0051907755
0.006116232
0.0068848415
0.0075128941
0.0080072824
0.0083933832
-0.0001135922
-0.00015814533
-0.00018964406
-0.00020896814
-0.00021909697
-0.00022411942
-0.00022487849
-0.00022042508
-0.00021156857
-0.00019970014
-0.00018595721
-0.00016838178
-0.00015042939
-0.00013192069
-0.00011354784
-9.5676388e-05
-7.855633e-05
-6.2274104e-05
-4.7209809e-05
-3.2713573e-05
-2.0619866e-05
-6.6296382e-06
-5.4705134e-05
1.9843601e-05
0.00011062533
0.00021698935
0.00033717518
0.00046595892
0.00059299535
0.00071017136
0.00073832096
0.00069786384
0.00036722975
-0.00016722922
-0.0010273825
-0.0022470739
-0.0038411343
-0.005758045
-0.0078723669
-0.00998749
-0.011863987
-0.013266079
-0.014016779
-0.014038291
-0.013355506
-0.01206775
-0.010328434
-0.0083420253
-0.0062876666
-0.0042185491
-0.0020359198
-6.3658213e-05
0.00165857
0.0031407419
0.0044101526
0.0054900279
0.0063987708
0.0071544494
0.0077710115
0.0082603511
0.0086406619
-5.1420778e-05
-0.00011359128
-0.00016022924
-0.00019289004
-0.00021287142
-0.00022317544
-0.0002280183
-0.00022845418
-0.00022366344
-0.00021460814
-0.0002029529
-0.00018623792
-0.00016876226
-0.00015013516
-0.0001312508
-0.00011262351
-9.4564341e-05
-7.7330623e-05
-6.1031173e-05
-4.6031811e-05
-3.1750803e-05
-1.9846466e-05
-6.3045022e-06
2.7597956e-05
0.00012475129
0.00024036852
0.0003732156
0.00052039734
0.00067388893
0.00081982242
0.00094717099
0.00095265689
0.00086272825
0.00041105905
-0.00028913098
-0.0013800994
-0.0028826182
-0.0047917206
-0.0070178956
-0.0093892615
-0.011663616
-0.013569189
-0.014865746
-0.015403634
-0.015146268
-0.014152706
-0.012562686
-0.010599584
-0.0084805573
-0.0062708122
-0.0038429325
-0.0016171035
0.00033972658
0.0020323432
0.0034897883
0.0047364364
0.005795929
0.0066869454
0.0074288452
0.008033382
0.0085172984
0.0088910697
3.1721452e-05
-5.1420009e-05
-0.00011620759
-0.00016425571
-0.00019770974
-0.00021804593
-0.00022830355
-0.0002327258
-0.0002325769
-0.00022759084
-0.000218876
-0.00020360926
-0.00018718071
-0.00016881635
-0.0001496811
-0.00013043381
-0.00011151362
-9.3241977e-05
-7.5885811e-05
-5.9572944e-05
-4.4652581e-05
-3.0611267e-05
-1.8927825e-05
-5.9247674e-06
0.00013440957
0.00025803686
0.0004023732
0.00056554351
0.00074250407
0.00092240067
0.0010859944
0.0012184529
0.0011853963
0.0010229022
0.00041256797
-0.00049715212
-0.0018705078
-0.0037061125
-0.0059700563
-0.008524807
-0.011145259
-0.013540536
-0.015415269
-0.016543748
-0.016813442
-0.016223151
-0.014879705
-0.013014838
-0.010883777
-0.0085621912
-0.0058836832
-0.0033855856
-0.0011728989
0.00075113152
0.0024160402
0.0038471371
0.0050699622
0.0061078713
0.0069801829
0.0077077062
0.0082999518
0.0087776681
0.0091444742
0.00013958863
3.1721958e-05
-5.4703116e-05
-0.00012121315
-0.00017021525
-0.00020409008
-0.00022453983
-0.00023456754
-0.00023818539
-0.00023757952
-0.00023311742
-0.00022004748
-0.0002053483
-0.00018776266
-0.00016872796
-0.00014909592
-0.00012942906
-0.0001101751
-9.1668411e-05
-7.4182046e-05
-5.7861512e-05
-4.3037829e-05
-2.9265569e-05
-1.7844787e-05
-5.4845899e-06
0.00027009188
0.00042451226
0.00060194523
0.00079943748
0.001009021
0.0012163274