/*--------------------------------*- C++ -*----------------------------------*\
  =========                 |
  \\      /  F ield         | OpenFOAM: The Open Source CFD Toolbox
   \\    /   O peration     | Website:  https://openfoam.org
    \\  /    A nd           | Version:  8
     \\/     M anipulation  |
\*---------------------------------------------------------------------------*/
FoamFile
{
    version     2.0;
    format      ascii;
    class       surfaceScalarField;
    location    "0.966377";
    object      phi;
}
// * * * * * * * * * * * * * * * * * * * * * * * * * * * * * * * * * * * * * //

dimensions      [0 3 -1 0 0 0 0];

internalField   nonuniform List<scalar> 
18180
(
2.2034024e-05
-1.339886
4.2179111e-05
-1.2528998
4.848395e-05
-1.3399344
5.960067e-05
-1.171547
9.278851e-05
-1.2529441
6.6971766e-05
-1.3400014
7.4367952e-05
-1.0954606
0.00013151711
-1.1715857
0.00012732852
-1.2530045
8.5725466e-05
-1.3400871
8.6489318e-05
-1.02431
0.00016432146
-1.0954934
0.00018054052
-1.171639
0.00016299424
-1.2530818
0.00010380743
-1.340191
9.6076754e-05
-0.95777481
0.00019127293
-1.0243369
0.000225992
-1.0955389
0.00023109941
-1.1717071
0.00019749263
-1.2531754
0.0001215915
-1.3403125
0.0001032956
-0.89555857
0.00021262407
-0.95779616
0.00026354802
-1.0243745
0.0002893232
-1.0955971
0.00028020794
-1.1717898
0.00023151585
-1.2532854
0.00013912754
-1.3404517
0.00010835712
-0.83738357
0.0002287445
-0.89557469
0.00029341972
-0.95782604
0.0003375707
-1.0244227
0.00035111833
-1.095668
0.00032880204
-1.1718871
0.0002651526
-1.2534114
0.00015642026
-1.3406081
0.00011149694
-0.78298933
0.00024009547
-0.83739493
0.00031606196
-0.89559734
0.00037610824
-0.95786457
0.00041010618
-1.0244817
0.00041249063
-1.0957517
0.00037701875
-1.1719989
0.00029841755
-1.2535534
0.0001734117
-1.3407815
0.00011296057
-0.7321291
0.00024719151
-0.78299643
0.00033208268
-0.83741095
0.00040548275
-0.89562671
0.00045745961
-0.95791193
0.00048242671
-1.0245517
0.00047364943
-1.0958483
0.00042488869
-1.1721254
0.00033120897
-1.2537112
0.00019000187
-1.3409715
0.00011300791
-0.68457553
0.00025056926
-0.73213248
0.00034217761
-0.78300652
0.0004264313
-0.83743189
0.00049379135
-0.89566304
0.00053889955
-0.9579684
0.00055483351
-1.0246328
0.00053465521
-1.0959581
0.00047228264
-1.1722665
0.00036334357
-1.2538845
0.00020605884
-1.3411776
0.00011187085
-0.64011269
0.00025077785
-0.68457574
0.00034708141
-0.73213738
0.00043980761
-0.7830199
0.00051994213
-0.83745804
0.000582561
-0.8957067
0.00062083228
-0.9580344
0.00062743627
-1.0247256
0.00059537375
-1.0960812
0.00051895402
-1.1724221
0.00039457502
-1.254073
0.0002214291
-1.341399
0.00010975086
-0.5985401
0.00024832844
-0.64011024
0.00034753044
-0.68457619
0.00044652235
-0.73214409
0.00053689938
-0.78303686
0.00061432626
-0.83748981
0.00067230308
-0.89575817
0.00070343604
-0.9581104
0.00070012066
-1.0248304
0.00065552114
-1.0962178
0.00056456398
-1.1725921
0.00042461293
-1.2542762
0.00023594702
-1.3416349
0.00010684563
-0.55966992
0.0002436841
-0.59853545
0.00034423281
-0.64010694
0.00044749601
-0.68457716
0.0005457288
-0.73215292
0.00063528852
-0.78305782
0.00071020097
-0.83752771
0.00076328005
-0.89581802
0.0007866412
-0.95819692
0.00077259458
-1.0249474
0.00071469228
-1.0963679
0.00060870582
-1.1727762
0.00045314045
-1.2544934
0.00024944392
-1.3418844
0.00010333089
-0.52332602
0.00023727959
-0.55966351
0.00033785029
-0.59852907
0.0004436225
-0.64010307
0.00054751845
-0.68457895
0.00064664435
-0.73216428
0.00073569247
-0.78308331
0.00080792342
-0.83757235
0.00085548896
-0.89588687
0.00087017705
-0.9582945
0.00084441867
-1.0250772
0.00077238959
-1.0965316
0.0006509284
-1.172974
0.0004798311
-1.2547238
0.00026175504
-1.3421461
9.9359244e-05
-0.48934433
0.00022950262
-0.52331824
0.00032898786
-0.55965465
0.00043574376
-0.59852119
0.00054333502
-0.64009888
0.0006496306
-0.68458194
0.00075007717
-0.73217866
0.00083856807
-0.78311395
0.00090757485
-0.83762444
0.00094870882
-0.8959654
0.00095360325
-0.95840369
0.00091503665
-1.0252198
0.00082805081
-1.0967087
0.00069075997
-1.1731849
0.00050436183
-1.2549664
0.00027272635
-1.3424189
9.5061206e-05
-0.45757082
0.00022069165
-0.48933551
0.00031818733
-0.52330744
0.00042463339
-0.55964354
0.00053419139
-0.59851205
0.00064547301
-0.64009472
0.00075471877
-0.68458658
0.00085658348
-0.73219668
0.00094409265
-0.78315047
0.0010090083
-0.83768474
0.0010425313
-0.89605433
0.0010363402
-0.95852499
0.00098380505
-1.0253756
0.00088107862
-1.096899
0.00072772617
-1.1734082
0.00052642612
-1.2552201
0.00028222226
-1.3427011
9.0546648e-05
-0.42786205
0.00021113725
-0.45756126
0.0003059247
-0.48932325
0.00041098688
-0.5232938
0.00052102441
-0.55963037
0.00063534674
-0.59850192
0.00075098647
-0.64009099
0.00086343363
-0.68459343
0.00096644277
-0.73221903
0.0010522123
-0.78319368
0.0011118779
-0.83775408
0.00113639
-0.89615438
0.0011176986
-0.95865888
0.0010500231
-1.0255445
0.00093085868
-1.0971021
0.00076136786
-1.1736432
0.00054574882
-1.2554836
0.0002901293
-1.3429912
8.5906691e-05
-0.40008347
0.0002010851
-0.427852
0.00029261115
-0.45754795
0.00039541739
-0.48930768
0.0005046813
-0.52327745
0.00062034795
-0.55961537
0.00074020817
-0.59849114
0.00086061195
-0.64008817
0.00097615734
-0.68460314
0.0010797067
-0.73224652
0.0011626686
-0.78324447
0.0012156652
-0.83783336
0.0012295876
-0.89626627
0.0011969084
-0.95880577
0.001112955
-1.0257266
0.00097678277
-1.0973176
0.000791263
-1.1738887
0.00056209367
-1.2557556
0.00029635934
-1.3432876
8.1215822e-05
-0.37410956
0.00019073983
-0.40007312
0.00027859636
-0.42783799
0.0003784562
-0.45753099
0.00048591311
-0.48928891
0.00060147541
-0.52325858
0.0007236352
-0.5595988
0.00084958695
-0.59848012
0.00097482986
-0.64008684
0.0010930532
-0.68461649
0.0011962235
-0.73228008
0.001275023
-0.78330383
0.0013197047
-0.83792348
0.0013213242
-0.89639068
0.0012731419
-0.95896596
0.0011718573
-1.0259217
0.0010182769
-1.0975446
0.00081703771
-1.1741436
0.0005752701
-1.2560345
0.00030085569
-1.3435884
7.6534001e-05
-0.34982283
0.00018026942
-0.37409909
0.00026417332
-0.4000587
0.00036055611
-0.42782009
0.0004653737
-0.45751045
0.00057962054
-0.48926706
0.00070241816
-0.52323736
0.00083175938
-0.55958097
0.00096405338
-0.59846934
0.0010939153
-0.64008771
0.0012140882
-0.68463435
0.0013156596
-0.73232072
0.0013886778
-0.7833728
0.0014232073
-0.83802536
0.0014107171
-0.89652826
0.0013455394
-0.95913964
0.0012260072
-1.0261294
0.0010548156
-1.0977824
0.00083837716
-1.1744068
0.00058514558
-1.2563188
0.00030359034
-1.343892
7.1908637e-05
-0.32711361
0.00016980973
-0.34981237
0.00024958386
-0.3740845
0.00034209701
-0.40004024
0.00044362287
-0.42779834
0.00055556423
-0.45748639
0.00067759239
-0.48924223
0.00080843118
-0.52321404
0.00094536946
-0.55956229
0.0010839892
-0.59845942
0.0012179586
-0.64009158
0.0013390516
-0.68465775
0.0014375169
-0.73236955
0.0015028966
-0.78345249
0.001525278
-0.83813992
0.0014968248
-0.89667954
0.0014132421
-0.95932687
0.00127472
-1.0263493
0.0010859364
-1.0980299
0.00085504469
-1.1746767
0.00059164136
-1.2566069
0.00030456708
-1.3441966
6.7376699e-05
-0.30587941
0.00015946892
-0.32710327
0.0002350244
-0.34979781
0.00032339258
-0.3740658
0.00042113222
-0.40001775
0.00052997879
-0.42777275
0.00065007162
-0.45745887
0.00078078522
-0.48921459
0.00092022909
-0.52318889
0.0010649446
-0.55954325
0.0012096068
-0.59845106
0.0013468825
-0.64009941
0.0014675695
-0.6846878
0.0015611492
-0.73242781
0.0016168166
-0.78354403
0.0016249359
-0.83826803
0.0015786807
-0.89684498
0.0014754137
-0.95952757
0.0013173688
-1.0265807
0.0011112666
-1.0982861
0.00086687726
-1.1749519
0.00059473923
-1.256897
0.00030381846
-1.3445004
6.2966572e-05
-0.28602408
0.00014933158
-0.30586927
0.00022065169
-0.3270889
0.00030469771
-0.34977912
0.0003982928
-0.37404296
0.00050343366
-0.3999912
0.00062064796
-0.42774333
0.00074987453
-0.45742796
0.00088996539
-0.48918432
0.0010383763
-0.52316233
0.0011908123
-0.55952445
0.0013409649
-0.59844515
0.0014804536
-0.64011229
0.0015991172
-0.68472577
0.0016857694
-0.73249676
0.0017294643
-0.78364855
0.0017211455
-0.8384105
0.001655312
-0.89702488
0.0015312571
-0.95974145
0.0013534172
-1.0268229
0.0011305197
-1.0985498
0.00087379708
-1.1752309
0.00059447686
-1.2571877
0.00030140675
-1.3448018
5.8699412e-05
-0.26745803
0.00013946276
-0.28601422
0.00020658834
-0.30585521
0.00028621576
-0.32707042
0.00037542358
-0.34975625
0.00047640341
-0.37401593
0.00058999661
-0.39996055
0.00071661924
-0.42771007
0.00085577707
-0.45739377
0.0010057686
-0.48915172
0.0011633045
-0.52313482
0.0013231637
-0.55950665
0.0014779788
-0.59844267
0.0016182918
-0.64013147
0.0017330214
-0.68477302
0.0018104595
-0.73257776
0.0018397832
-0.78376719
0.0018128334
-0.83856802
0.0017257615
-0.89721938
0.0015800556
-0.95996809
0.0013824181
-1.0270748
0.001143513
-1.0988195
0.00087580684
-1.1755123
0.0005909504
-1.2574772
0.0002974183
-1.3450992
5.4590652e-05
-0.25009769
0.00012991136
-0.26744848
0.00019292751
-0.28600056
0.00026810575
-0.3058371
0.00035278024
-0.32704777
0.00044927717
-0.34972912
0.0005586837
-0.37398462
0.00068180942
-0.39992574
0.00081872106
-0.42767301
0.00096847156
-0.45735648
0.0011287171
-0.48911713
0.0012953281
-0.52310698
0.0014620625
-0.55949073
0.0016204265
-0.59844481
0.0017598679
-0.64015831
0.0018684653
-0.68483103
0.0019341937
-0.73267217
0.0019466451
-0.783901
0.0018989077
-0.83874116
0.0017891323
-0.89742846
0.0016211727
-0.96020685
0.0014040372
-1.0273353
0.0011501642
-1.0990939
0.00087299546
-1.1757943
0.00058430472
-1.2577641
0.00029196016
-1.3453912
5.0650522e-05
-0.23386433
0.00012071278
-0.25008849
0.00017973758
-0.26743529
0.00025048906
-0.28598294
0.00033056368
-0.30581488
0.00042236846
-0.32702086
0.00052717622
-0.34969761
0.00064611219
-0.37394892
0.00077971251
-0.39988673
0.00092768778
-0.42763223
0.0010885554
-0.45731631
0.0012592353
-0.48908104
0.0014346528
-0.52307957
0.0016074508
-0.55947776
0.0017679458
-0.59845288
0.0019045063
-0.64019435
0.0020045055
-0.68490134
0.0020558413
-0.73278136
0.0020488628
-0.78405096
0.001978303
-0.83893033
0.0018445869
-0.89765187
0.0016540864
-0.9604569
0.0014180539
-1.0276032
0.0011505018
-1.0993714
0.00086552546
-1.1760755
0.0005747277
-1.2580469
0.00028515802
-1.3456764
4.688378e-05
-0.21868514
0.00011189103
-0.23385551
0.00016706583
-0.25007582
0.00023345532
-0.26741826
0.00030892817
-0.2859613
0.00039592511
-0.30578844
0.00049585276
-0.32698954
0.00061008147
-0.34966158
0.00073953008
-0.37390874
0.00088446828
-0.39984351
0.0010441762
-0.42758785
0.0012165477
-0.45727363
0.0013976595
-0.48904404
0.0015813824
-0.5230535
0.0017591458
-0.55946896
0.0019200314
-0.59846841
0.0020513873
-0.64024124
0.0021400541
-0.68498555
0.002174159
-0.73290666
0.0021452255
-0.78421788
0.0020499781
-0.83913573
0.0018913885
-0.89788918
0.0016783985
-0.96071724
0.0014243849
-1.0278771
0.0011446532
-1.0996505
0.00085362686
-1.1763544
0.00056244772
-1.2583242
0.00027714456
-1.3459535
4.3292884e-05
-0.20449124
0.00010346038
-0.21867671
0.00015494082
-0.23384338
0.00021706746
-0.25005943
0.00028798857
-0.26739732
0.00037013866
-0.28593552
0.0004650145
-0.3057576
0.00057416934
-0.32695363
0.00069882518
-0.34962088
0.00083971512
-0.37386398
0.00099677742
-0.39979611
0.0011687831
-0.42754009
0.0013528999
-0.45722887
0.0015442464
-0.48900691
0.0017355158
-0.52302987
0.0019168258
-0.55946575
0.0020760112
-0.59849303
0.0021994955
-0.64030068
0.0022738441
-0.68508523
0.0022877973
-0.73304923
0.0022344444
-0.78440235
0.0021129051
-0.83935724
0.0019288733
-0.89813965
0.0016938375
-0.96098669
0.0014230701
-1.0281555
0.001132842
-1.0999297
0.00083759731
-1.1766296
0.00054771583
-1.2585947
0.00026806324
-1.3462216
3.9882056e-05
-0.19121878
9.5429026e-05
-0.20448321
0.00014337343
-0.21866514
0.00020136506
-0.23382768
0.00026782655
-0.25003927
0.00034515294
-0.26737233
0.00043489589
-0.2859054
0.00053873795
-0.30572217
0.00065813332
-0.32691294
0.00079418909
-0.34957535
0.00094739726
-0.3738146
0.0011172974
-0.39974463
0.0013020578
-0.42748924
0.0014980077
-0.45718263
0.0016991687
-0.48897056
0.0018969138
-0.52300996
0.0020799762
-0.55946972
0.0022349741
-0.59852851
0.002347571
-0.6403744
0.0024043449
-0.68520178
0.0023951109
-0.7332099
0.0023150411
-0.78460448
0.0021659634
-0.83959433
0.0019564114
-0.89840222
0.001700225
-0.96126385
0.0014142494
-1.0284369
0.0011153901
-1.1002075
0.00081777614
-1.1768997
0.000530808
-1.2588575
0.00025808452
-1.3464796
-0.0017292949
-0.21025951
8.7805489e-05
-0.19121116
0.00013236106
-0.2044722
0.00018636573
-0.21865014
0.00024849469
-0.23380835
0.00032107137
-0.25001519
0.00040567455
-0.26734311
0.00050407138
-0.28587073
0.0006178867
-0.30568192
0.00074852061
-0.32686727
0.00089691917
-0.34952487
0.0010632783
-0.37376058
0.0012466573
-0.39968923
0.0014445172
-0.42743575
0.0016522013
-0.45713566
0.0018624589
-0.48893611
0.0020652242
-0.52299521
0.0022478349
-0.55948258
0.002395684
-0.59857663
0.0024939695
-0.64046403
0.0025298168
-0.68533649
0.0024946134
-0.73338947
0.0023858953
-0.78482442
0.0022084126
-0.83984633
0.0019736069
-0.89867561
0.0016975388
-0.96154714
0.0013981678
-1.0287197
0.0010926853
-1.1004824
0.00079454538
-1.1771634
0.00051201348
-1.2591114
0.00024737179
-1.346727
-0.0029521729
-0.2108047
-0.0016230424
-0.20854866
0.00012190459
-0.1912007
0.00017207068
-0.2044579
0.00023001827
-0.21863166
0.00029796189
-0.23378524
0.00037747965
-0.24998699
0.0004703867
-0.26730943
0.00057842708
-0.28583127
0.00070322257
-0.30563663
0.00084608152
-0.32681643
0.0010077465
-0.34946934
0.0011880488
-0.37370198
0.0013854746
-0.39963019
0.0015966275
-0.42738018
0.0018156702
-0.45708887
0.002033938
-0.48890482
0.0022398691
-0.52298725
0.0024192351
-0.55950613
0.0025566761
-0.59863933
0.0026374162
-0.64057163
0.0026494291
-0.6854913
0.002585779
-0.73358935
0.00244669
-0.78506269
0.002240108
-0.84011283
0.0019804501
-0.89895852
0.0016859563
-0.96183493
0.0013752176
-1.0290022
0.0010651697
-1.100753
0.0007683165
-1.1774197
0.00049164534
-1.2593557
0.00023606872
-1.3469631
-0.0036814412
-0.21129732
-0.0028071208
-0.20962062
-0.0015312697
-0.20689549
0.00015848584
-0.19118711
0.0002124022
-0.20444028
0.00027585907
-0.21860956
0.00035039771
-0.23375816
0.00043784365
-0.24995445
0.00054001802
-0.26727102
0.00065870397
-0.28578675
0.00079549021
-0.30558603
0.00095156266
-0.32676025
0.0011274053
-0.3494087
0.0013224058
-0.37363891
0.0015343286
-0.39956789
0.0017587182
-0.42732323
0.0019884197
-0.45704335
0.0022132175
-0.48887817
0.0024198675
-0.52298788
0.0025932363
-0.55954269
0.0027174414
-0.59871936
0.0027776199
-0.64069982
0.0027626315
-0.68566816
0.0026678845
-0.73381055
0.002496847
-0.78531943
0.0022608504
-0.84039323
0.0019771818
-0.89924974
0.0016658439
-0.96212555
0.0013458776
-1.0292829
0.0010333313
-1.101018
0.00073951671
-1.1776676
0.00047001384
-1.2595896
0.00022432277
-1.3471874
-0.0039733866
-0.21173377
-0.0035153164
-0.21058912
-0.0026764616
-0.20847543
-0.001439428
-0.20529758
0.00019565557
-0.19117037
0.00025477267
-0.2044192
0.00032447518
-0.21858364
0.00040655127
-0.23372686
0.00050285582
-0.24991729
0.00061528332
-0.2672276
0.00074563273
-0.2857369
0.00089543987
-0.30552991
0.0010657261
-0.32669857
0.001256652
-0.34934294
0.0014670186
-0.3735716
0.001693669
-0.39950284
0.0019309806
-0.42726579
0.0021702353
-0.45700037
0.0023996574
-0.48885796
0.0026049725
-0.52299961
0.0027699223
-0.55959517
0.0028775646
-0.5988193
0.0029131918
-0.64085038
0.0028675944
-0.68586787
0.0027392724
-0.73405297
0.0025352599
-0.78559384
0.0022702301
-0.84068628
0.0019639431
-0.89954784
0.0016376962
-0.96241737
0.0013106956
-1.0295603
0.00099771552
-1.1012762
0.00070858268
-1.1779061
0.00044740556
-1.2598127
0.00021227495
-1.3473997
-0.0038868908
-0.21211145
-0.0038017208
-0.21144736
-0.00336296
-0.20990263
-0.0025478343
-0.20736703
-0.0013492276
-0.20375269
0.00023471633
-0.19115031
0.00029972871
-0.20439445
0.00037657101
-0.21855366
0.00046707697
-0.23369108
0.00057320062
-0.24987521
0.00069689249
-0.26717886
0.00083995711
-0.28568141
0.0010038471
-0.30546803
0.0011893685
-0.32663128
0.0013962239
-0.34927215
0.0016224376
-0.37350037
0.0018638637
-0.39943572
0.0021133644
-0.42720892
0.0023609458
-0.45696166
0.0025936531
-0.48884664
0.0027955194
-0.52302521
0.0029483779
-0.55966598
0.0030348815
-0.59894099
0.0030417052
-0.64102449
0.0029622375
-0.68609083
0.002798432
-0.73431614
0.0025610493
-0.78588466
0.0022679256
-0.84099027
0.0019409156
-0.89985106
0.001602083
-0.96270876
0.0012702967
-1.0298329
0.00095888621
-1.1015265
0.0006759571
-1.1781347
0.00042409434
-1.2600245
0.00020005682
-1.3475997
-0.0034836118
-0.21242761
-0.0037232203
-0.21218995
-0.003642763
-0.21116756
-0.0032137239
-0.20923674
-0.0024219906
-0.20629426
-0.0012594147
-0.20225856
0.00027617785
-0.19112676
0.00034792886
-0.20436581
0.00043276188
-0.21851934
0.00053262589
-0.23365051
0.00064956192
-0.24982787
0.00078557439
-0.26712447
0.00094245372
-0.28562002
0.0011215316
-0.3054002
0.0013232753
-0.32655834
0.0015467543
-0.34919647
0.0017891883
-0.37342569
0.0020450369
-0.39936739
0.0023062229
-0.4271542
0.0025614379
-0.45692945
0.0027955668
-0.48884669
0.0029901425
-0.52306698
0.0031262067
-0.55975731
0.0031870707
-0.59908636
0.0031612383
-0.64122349
0.0030451056
-0.68633751
0.0028444369
-0.73459953
0.0025737687
-0.7861905
0.0022539546
-0.8413033
0.0019084737
-0.90015745
0.0015596024
-0.96299806
0.0012253363
-1.0300993
0.00091741172
-1.101768
0.00064206384
-1.1783527
0.00040034236
-1.2602248
0.00018778875
-1.3477875
-0.0028272784
-0.21268016
-0.0033393583
-0.21281147
-0.0035709628
-0.21226175
-0.0034875985
-0.21089369
-0.0030684215
-0.2085903
-0.002298314
-0.20525536
-0.0011692392
-0.20081315
0.00032065228
-0.19109948
0.00039994916
-0.204333
0.0004936634
-0.21848038
0.00060385185
-0.2336048
0.00073264684
-0.24977495
0.0008820963
-0.26706412
0.0010539504
-0.28555244
0.00124931
-0.30532623
0.001468146
-0.32647973
0.0017088982
-0.34911618
0.001967581
-0.37334824
0.0022380249
-0.3992992
0.0025107764
-0.42710353
0.0027720048
-0.45690588
0.0030038377
-0.48886038
0.0031867024
-0.52312747
0.0033014759
-0.55987171
0.0033323663
-0.59925749
0.0032701978
-0.64144858
0.0031149683
-0.68660804
0.0028765381
-0.7349023
0.0025732391
-0.78650979
0.0022285854
-0.84162342
0.0018671642
-0.90046501
0.0015109193
-0.96328365
0.0011764924
-1.0303584
0.00087384612
-1.1019998
0.00060730292
-1.1785596
0.00037639231
-1.2604134
0.00017557926
-1.3479631
-0.0019833193
-0.21286742
-0.0027114404
-0.21330808
-0.003204517
-0.21317791
-0.0034223533
-0.212327
-0.0033367244
-0.21062538
-0.0029260693
-0.20796255
-0.0021759134
-0.20424869
-0.0010783584
-0.19941413
0.00036867662
-0.19106821
0.0004563684
-0.2042957
0.00055989646
-0.21843643
0.00068143491
-0.23355359
0.00082320486
-0.24971606
0.00098728157
-0.26699745
0.00117528
-0.28547841
0.0013879309
-0.30524602
0.0016247315
-0.32639556
0.0018831544
-0.34903175
0.0021588381
-0.37326905
0.0024442732
-0.39923269
0.0027272348
-0.42705876
0.0029911801
-0.45689323
0.0032168381
-0.48889052
0.0033836642
-0.52320966
0.0034724609
-0.56001181
0.0034689144
-0.5994562
0.0033669352
-0.64170055
0.0031706134
-0.68690211
0.0028941482
-0.73522321
0.0025594657
-0.78684067
0.002192266
-0.84194852
0.0018176749
-0.90077177
0.0014567727
-0.96356393
0.0011244505
-1.030609
0.00082873756
-1.1022212
0.00057204191
-1.1787553
0.00035246544
-1.2605903
0.00016352407
-1.3481266
-0.0010183951
-0.21298815
-0.0019025738
-0.21367629
-0.0026028802
-0.21390971
-0.0030732075
-0.21352706
-0.0032780958
-0.21238563
-0.0031893866
-0.21036207
-0.0027860325
-0.20735243
-0.0020543133
-0.20327273
-0.00098609758
-0.19805936
0.00042079224
-0.19103264
0.00051777264
-0.20425358
0.00063210998
-0.2183871
0.00076609993
-0.23349648
0.00092204445
-0.24965082
0.0011019661
-0.26692413
0.0013072234
-0.2853977
0.0015382069
-0.30515949
0.0017937116
-0.32630612
0.0020710317
-0.34894394
0.0023645742
-0.37318935
0.0026639444
-0.3991694
0.002954455
-0.42702204
0.0032179188
-0.45689431
0.0034333822
-0.48894023
0.0035793387
-0.52331654
0.0036371387
-0.56018003
0.0035947606
-0.59968403
0.0034498363
-0.64197977
0.0032110255
-0.68721899
0.0028969001
-0.73556064
0.0025326554
-0.78718106
0.0021456045
-0.84227645
0.0017608002
-0.9010758
0.0013979499
-0.96383743
0.0010698935
-1.0308502
0.00078260371
-1.1024318
0.00053662511
-1.1789394
0.00032875858
-1.2607556
0.00015170609
-1.3482783
-0.21304149
-3.2792498e-10
-0.00097707045
-0.21391365
-0.0018267951
-0.21445237
-0.0024972282
-0.21448569
-0.0029458061
-0.21385935
-0.0031374632
-0.21243755
-0.0030450033
-0.21010309
-0.0026480994
-0.20675864
-0.0019329976
-0.20232583
-0.00089197775
-0.19674659
0.00047754925
-0.19099241
0.00058477673
-0.20420624
0.00071099883
-0.218332
0.0008586325
-0.23343307
0.0010299942
-0.24957885
0.0012269502
-0.26684386
0.0014506266
-0.28531012
0.0017009854
-0.30506677
0.0019767985
-0.32621188
0.002274268
-0.34885364
0.002584953
-0.37311036
0.0028963467
-0.39911129
0.0031919543
-0.42699607
0.0034513581
-0.45691228
0.0036519121
-0.48901281
0.0037717015
-0.5234511
0.0037933791
-0.56037865
0.0037079372
-0.59994213
0.0035174336
-0.64228618
0.0032353948
-0.68755748
0.00288466
-0.73591265
0.0024932232
-0.78752868
0.0020893574
-0.842605
0.001697409
-0.90137526
0.0013352642
-0.9641028
0.0010134851
-1.0310811
0.00073592545
-1.1026311
0.00050136441
-1.179112
0.00030544382
-1.2609093
0.00014019544
-1.3484185
-0.21401856
-1.5975235e-11
-0.21304149
0.0010183945
-0.00093825446
-0.21480219
-0.0017530716
-0.21519653
-0.0023947834
-0.21503672
-0.0028216607
-0.21417515
-0.0030000253
-0.21248253
-0.002903126
-0.20984807
-0.0025114121
-0.20618023
-0.0018114477
-0.20140636
-0.00079541362
-0.19547363
0.00053952653
-0.19094716
0.0006580416
-0.20415329
0.00079731989
-0.21827069
0.00095984704
-0.23336292
0.0011478645
-0.24949976
0.0013630866
-0.26675632
0.0016064842
-0.28521562
0.0018781164
-0.30496808
0.0021758029
-0.32611342
0.0024930803
-0.34876176
0.0028197731
-0.37303378
0.0031415033
-0.39906084
0.0034391987
-0.42698392
0.0036902003
-0.45695057
0.0038705528
-0.48911166
0.0039585658
-0.52361629
0.0039389344
-0.56060965
0.0038065376
-0.60023123
0.0035684204
-0.64261921
0.0032431451
-0.68791597
0.0028575357
-0.73627696
0.0024417821
-0.7878811
0.0020243985
-0.84293199
0.0016284217
-0.90166841
0.0012695313
-0.96435884
0.00095585877
-1.031301
0.00068914564
-1.1028189
0.00046653575
-1.1792731
0.00028266828
-1.2610518
0.00012905225
-1.3485476
-0.21495682
2.7791133e-11
-0.21401856
0.00097707043
-0.21298815
0.0019833187
-0.0009005039
-0.21565476
-0.0016816161
-0.2159097
-0.0022950282
-0.21556335
-0.0027004604
-0.21447472
-0.0028650943
-0.21252056
-0.0027632518
-0.20959623
-0.0023757082
-0.20561597
-0.0016891384
-0.20051264
-0.00069579311
-0.19423831
0.00060734816
-0.19089647
0.0007382902
-0.20409426
0.00089186809
-0.21820271
0.0010705612
-0.23328562
0.0012764937
-0.24941317
0.0015114893
-0.26666132
0.0017767259
-0.28511423
0.0020714292
-0.30486371
0.0023910427
-0.32601138
0.0027277371
-0.34866973
0.0030694996
-0.37296178
0.0033992325
-0.39902088
0.0036952588
-0.42698897
0.0039328413
-0.45701286
0.0040871915
-0.48924029
0.0041375216
-0.52381487
0.0040715226
-0.56087463
0.0038887495
-0.60055156
0.0036016998
-0.64297776
0.0032339599
-0.68829239
0.0028158815
-0.73665106
0.0023791194
-0.78823582
0.0019517004
-0.84325527
0.0015547884
-0.90195367
0.0012015495
-0.96460454
0.00089760819
-1.0315094
0.00064266515
-1.102995
0.00043237867
-1.1794228
0.00026055955
-1.2611833
0.00011833123
-1.3486659
-0.21585732
7.3032885e-12
-0.21495682
0.00093825451
-0.21391365
0.0019025738
-0.21286742
0.0028272778
-0.00086391237
-0.21647246
-0.0016120555
-0.21659267
-0.0021977093
-0.2160661
-0.0025818172
-0.21475799
-0.0027326206
-0.21255119
-0.0026249744
-0.20934696
-0.0022403223
-0.20506479
-0.0015655229
-0.19964291
-0.00059256692
-0.19303839
0.00068169858
-0.19083988
0.00082628896
-0.20402868
0.00099546328
-0.21812761
0.0011915836
-0.23320071
0.0014170712
-0.24931875
0.0016741253
-0.26655872
0.0019631592
-0.28500596
0.0022813757
-0.30475404
0.0026232011
-0.32590685
0.0029790817
-0.34857931
0.003334325
-0.37289687
0.0036690431
-0.39899466
0.0039589002
-0.42701503
0.0041773805
-0.45710305
0.0042994031
-0.48940217
0.0043060226
-0.52404937
0.0041888647
-0.56117475
0.0039529127
-0.60090277
0.0036164265
-0.64336023
0.0032078044
-0.68868432
0.0027602813
-0.73703222
0.0023061793
-0.7885903
0.0018723081
-0.84357279
0.0014774655
-0.90222959
0.0011320839
-0.96483901
0.00083928138
-1.0317061
0.00059683749
-1.1031594
0.00039910329
-1.1795614
0.00023923484
-1.2613042
0.00010808216
-1.348774
-0.21672123
-1.5381294e-10
-0.21585732
0.00090050392
-0.21480219
0.0018267952
-0.21367629
0.0027114405
-0.21268016
0.0034836113
-0.00082830294
-0.21725621
-0.0015442324
-0.21724615
-0.0021025358
-0.21654538
-0.0024654124
-0.2150252
-0.002601951
-0.21257422
-0.0024879826
-0.2090993
-0.0021048682
-0.20452544
-0.0014398224
-0.19879565
-0.00048503259
-0.19187166
0.00076330617
-0.19077689
0.00092284007
-0.20395605
0.0011088671
-0.21804489
0.0013241012
-0.23310774
0.0015715807
-0.24921621
0.0018527505
-0.26644832
0.0021663815
-0.28489096
0.0025089874
-0.30463983
0.0028734392
-0.3258012
0.0032476881
-0.34849267
0.0036142281
-0.37284206
0.0039501464
-0.39898591
0.0042285641
-0.42706622
0.004421536
-0.45722518
0.0045045235
-0.48960067
0.0044614126
-0.52432192
0.0042887451
-0.56151058
0.0039975776
-0.60128393
0.0036120484
-0.64376447
0.003164922
-0.68908896
0.0026915405
-0.73741758
0.0022240355
-0.78894203
0.0017873118
-0.84388264
0.0013973937
-0.9024949
0.0010618559
-0.96506159
0.00078137588
-1.0318906
0.00055197113
-1.1033123
0.00036690283
-1.179689
0.00021880227
-1.2614149
9.8337017e-05
-1.3488723
-0.21754954
-2.1130845e-10
-0.21672123
0.00086391208
-0.21565476
0.0017530717
-0.21445237
0.0026028802
-0.21330808
0.0033393584
-0.21242761
0.0038868904
-0.00079359211
-0.21800685
-0.0014779532
-0.21787073
-0.0020092909
-0.2170015
-0.0023509163
-0.21527624
-0.0024729306
-0.21258927
-0.002351452
-0.20885272
-0.0019686338
-0.20399663
-0.0013117111
-0.19796898
-0.00037254548
-0.19073581
0.00085293899
-0.19070699
0.0010286521
-0.20387584
0.0012332039
-0.217954
0.0014701389
-0.2330063
0.0017417059
-0.24910516
0.0020480998
-0.26633003
0.0023877048
-0.28476968
0.0027556835
-0.30452207
0.0031426999
-0.32569622
0.0035340055
-0.34841245
0.0039089157
-0.37280083
0.0042414336
-0.39899878
0.0045022675
-0.42714695
0.0046626967
-0.45738335
0.0046996589
-0.48983891
0.0046009835
-0.52463416
0.0043690797
-0.56188208
0.0040215657
-0.60169344
0.0035883215
-0.64418787
0.0031058401
-0.68950326
0.0026106621
-0.73780421
0.002133862
-0.78928858
0.0016978184
-0.84418306
0.0013154818
-0.90274852
0.00099152957
-0.96527174
0.00072433084
-1.032063
0.00050835757
-1.1034538
0.00033595652
-1.1798062
0.0001993332
-1.2615159
8.9094201e-05
-1.3489614
-0.21834313
-2.7988056e-10
-0.21754954
0.00082830254
-0.21647246
0.0016816159
-0.21519653
0.0024972283
-0.21390972
0.0032045171
-0.21281147
0.0037232205
-0.21211145
0.0039733863
-0.00075968324
-0.21872512
-0.0014130404
-0.21846698
-0.001917655
-0.21743477
-0.0022379855
-0.21551118
-0.0023447896
-0.21259593
-0.0022152329
-0.20860612
-0.0018313678
-0.20347697
-0.0011804211
-0.1971611
-0.0002542072
-0.18962866
0.00095124636
-0.19062959
0.001144769
-0.20378741
0.0013705933
-0.21785445
0.0016312877
-0.23289588
0.0019282972
-0.24898536
0.0022617017
-0.26620403
0.0026287488
-0.28464275
0.0030227463
-0.30440212
0.0034318793
-0.32559409
0.0038382573
-0.34834179
0.0042178074
-0.3727772
0.0045413585
-0.39903787
0.0047776302
-0.42726188
0.0048979083
-0.4575816
0.0048817319
-0.49011966
0.0047220475
-0.52498713
0.0044279945
-0.56228851
0.0040240066
-0.60212913
0.0035453356
-0.64462737
0.0030313566
-0.68992395
0.0025188189
-0.73818917
0.0020368984
-0.78962766
0.0016049284
-0.84447251
0.0012325871
-0.90298958
0.00092170944
-0.96546912
0.00066855522
-1.0322232
0.00046626882
-1.1035841
0.0003063912
-1.1799133
0.00018082226
-1.2616076
8.0332723e-05
-1.3490418
-0.21910281
-9.7609809e-11
-0.21834313
0.00079359157
-0.21725621
0.0016120552
-0.2159097
0.0023947833
-0.21448569
0.0030732077
-0.21317791
0.0035709629
-0.21218995
0.0038017211
-0.21173377
0.0036814411
-0.00072648784
-0.21941168
-0.001349335
-0.2190353
-0.001827437
-0.21784531
-0.002126297
-0.21572967
-0.0022176416
-0.21259352
-0.0020786434
-0.20835884
-0.001692079
-0.20296531
-0.0010452369
-0.19637007
-0.00012979544
-0.18854762
0.0010591732
-0.19054399
0.0012734415
-0.20369025
0.0015224919
-0.21774566
0.0018084789
-0.23277606
0.002133042
-0.2488567
0.002495323
-0.2660706
0.0028910932
-0.28451109
0.0033114775
-0.30428172
0.003741711
-0.32549754
0.0041604361
-0.34828442
0.0045399034
-0.37277575
0.0048479416
-0.39910818
0.0050518362
-0.42741581
0.0051238982
-0.45782377
0.0050475446
-0.49044516
0.0048220224
-0.52538116
0.0044638812
-0.56272839
0.004004387
-0.60258818
0.0034835183
-0.64507953
0.0029425193
-0.69034765
0.0024173165
-0.73856959
0.0019344207
-0.78995715
0.0015097079
-0.84474963
0.0011495091
-0.90321738
0.0008529573
-0.96565352
0.00061444315
-1.0323713
0.00042590661
-1.1037036
0.00027822135
-1.1800107
0.0001632093
-1.2616905
7.2055447e-05
-1.3491138
-0.2198293
-2.2574433e-11
-0.21910281
0.00075968306
-0.21800685
0.0015442319
-0.21659267
0.002295028
-0.21503672
0.002945806
-0.21352706
0.0034223535
-0.21226175
0.0036427631
-0.21144736
0.0035153168
-0.21129732
0.002952173
-0.00069390654
-0.22006711
-0.0012866365
-0.2195761
-0.0017383479
-0.21823326
-0.0020155031
-0.21593181
-0.0020904714
-0.21258169
-0.0019411687
-0.20810975
-0.0015503402
-0.20246021
-0.000905483
-0.19559438
1.8524294e-06
-0.1874903
0.0011791366
-0.19044969
0.0014159551
-0.20358372
0.0016898604
-0.21762704
0.0020035065
-0.23264653
0.002357805
-0.24871918
0.0027507901
-0.2659303
0.0031763914
-0.28437601
0.0036230902
-0.3041631
0.0040727715
-0.32540988
0.0045001632
-0.34824468
0.0048737702
-0.37280158
0.0051587054
-0.39921505
0.0053216289
-0.42761354
0.0053371199
-0.45811335
0.0051938654
-0.490817
0.0048985024
-0.52581578
0.0044754733
-0.56319947
0.0039625795
-0.60306724
0.0034036295
-0.64554064