/*--------------------------------*- C++ -*----------------------------------*\
  =========                 |
  \\      /  F ield         | OpenFOAM: The Open Source CFD Toolbox
   \\    /   O peration     | Website:  https://openfoam.org
    \\  /    A nd           | Version:  8
     \\/     M anipulation  |
\*---------------------------------------------------------------------------*/
FoamFile
{
    version     2.0;
    format      ascii;
    class       surfaceScalarField;
    location    "0.966377";
    object      phi_0;
}
// * * * * * * * * * * * * * * * * * * * * * * * * * * * * * * * * * * * * * //

dimensions      [0 3 -1 0 0 0 0];

internalField   nonuniform List<scalar> 
18180
(
2.062462e-05
-1.3398805
3.9429354e-05
-1.2528951
4.6410996e-05
-1.3399269
5.5698327e-05
-1.1715428
8.8812773e-05
-1.2529375
6.4900533e-05
-1.3399918
6.9496067e-05
-1.0954571
0.00012590381
-1.1715799
0.00012341233
-1.252996
8.3459982e-05
-1.3400753
8.082784e-05
-1.0243072
0.00015732429
-1.0954886
0.00017497877
-1.1716315
0.00015869801
-1.2530712
0.00010136323
-1.3401767
8.9793349e-05
-0.95777266
0.00018313907
-1.024333
0.00021901907
-1.0955326
0.00022500522
-1.1716978
0.00019285594
-1.2531627
0.00011894476
-1.3402956
9.6545786e-05
-0.89555701
0.0002035908
-0.95779311
0.00025540723
-1.0243694
0.0002816944
-1.0955893
0.00027362604
-1.1717786
0.00022649005
-1.2532702
0.00013626593
-1.3404319
0.00010128175
-0.83738254
0.00021903419
-0.89557246
0.00028435077
-0.95782205
0.00032867029
-1.0244163
0.0003428691
-1.0956585
0.00032165974
-1.1718737
0.00025971257
-1.2533937
0.00015333402
-1.3405852
0.00010422105
-0.78298876
0.00022991064
-0.83739342
0.00030629145
-0.8955944
0.00036619252
-0.95785957
0.00040046779
-1.0244739
0.00040352706
-1.0957404
0.00036927619
-1.1719833
0.00029254296
-1.2535329
0.00017009572
-1.3407553
0.00010559298
-0.73212892
0.0002367125
-0.78299556
0.00032181839
-0.83740894
0.00039479385
-0.895623
0.00044670465
-0.95790581
0.00047193708
-1.0245424
0.00046391518
-1.095835
0.00041651375
-1.1721073
0.00032488805
-1.2536877
0.00018645542
-1.3409418
0.0001056395
-0.68457568
0.00023995339
-0.73213216
0.00033160528
-0.78300535
0.00041519201
-0.83742934
0.00048217863
-0.89565847
0.00052717401
-0.95796105
0.00054341899
-1.0246219
0.00052410472
-1.0959426
0.0004632551
-1.1722456
0.00035657276
-1.2538578
0.00020228569
-1.341144
0.00010457759
-0.6401131
0.00024015794
-0.68457588
0.00033636345
-0.73213692
0.0004282182
-0.78301837
0.00050771123
-0.83745488
0.00056987641
-0.89570117
0.0006080452
-0.95802567
0.0006150364
-1.0247128
0.00058397596
-1.0960633
0.00050926513
-1.1723983
0.00038735914
-1.2540429
0.00021743742
-1.3413615
0.00010259664
-0.59854072
0.00023781576
-0.64011076
0.00033680591
-0.68457632
0.00043475894
-0.73214346
0.00052426701
-0.78303493
0.00060094053
-0.83748594
0.000658439
-0.89575157
0.00068951111
-0.95810015
0.00068669122
-1.0248155
0.0006432592
-1.0961973
0.00055421675
-1.1725652
0.00041696513
-1.2542424
0.00023174928
-1.3415932
9.9881755e-05
-0.5596707
0.00023337137
-0.59853628
0.00033361848
-0.64010757
0.00043571025
-0.68457727
0.00053288677
-0.73215208
0.00062143663
-0.78305543
0.00069553732
-0.83752304
0.00074814397
-0.8958102
0.00077151925
-0.95818498
0.00075810747
-1.0249303
0.0007015638
-1.0963447
0.00059771505
-1.1727459
0.00044508202
-1.2544557
0.00024505664
-1.3418383
9.6597283e-05
-0.52332693
0.00022724118
-0.55966457
0.00032744218
-0.5985301
0.00043194231
-0.6401038
0.00053463308
-0.68457902
0.00063253589
-0.73216318
0.00072048412
-0.78308037
0.00079187346
-0.83756677
0.00083900561
-0.89587769
0.00085381609
-0.95828068
0.00082886227
-1.0250576
0.00075840672
-1.0965054
0.00063932051
-1.1729402
0.00047139109
-1.2546821
0.00025719844
-1.3420955
9.2886042e-05
-0.48934532
0.00021979648
-0.52331948
0.00031886292
-0.55965599
0.00042427473
-0.59852243
0.00053054756
-0.64009972
0.00063544876
-0.68458193
0.00073455347
-0.73217724
0.00082187989
-0.78311038
0.00089004678
-0.83761781
0.00093082027
-0.89595469
0.0009359789
-0.9583878
0.00089841612
-1.0251977
0.00081324014
-1.0966793
0.00067857266
-1.1731473
0.00049557658
-1.2549205
0.00026802398
-1.3423635
8.8870175e-05
-0.45757187
0.00021136138
-0.48933689
0.0003084055
-0.52330903
0.00041346059
-0.55964518
0.00052161922
-0.5985135
0.00063137459
-0.64009564
0.00073908195
-0.68458646
0.0008395076
-0.73219487
0.00092581665
-0.78314615
0.00098992706
-0.83767692
0.0010231976
-0.89604191
0.0010174463
-0.95850683
0.00096614246
-1.0253506
0.00086548126
-1.0968662
0.00071500781
-1.1733668
0.00051733853
-1.2551698
0.00027740043
-1.3426409
8.4652523e-05
-0.42786314
0.00020221412
-0.45756273
0.00029653087
-0.48932501
0.00040017689
-0.52329574
0.00050876277
-0.55963232
0.00062146315
-0.59850359
0.00073541126
-0.64009197
0.0008461932
-0.68459315
0.00094769152
-0.73221675
0.0010322559
-0.78318848
0.0010911858
-0.8377449
0.0011155898
-0.89614005
0.0010975475
-0.95863824
0.0010313574
-1.0255164
0.00091452963
-1.0970657
0.00074817673
-1.1735976
0.00053640748
-1.2554288
0.00028521654
-1.3429261
8.0318369e-05
-0.40008457
0.00019258993
-0.42785352
0.00028363723
-0.45754983
0.00038502052
-0.48930986
0.00049280538
-0.52327979
0.00060678675
-0.55961765
0.00072484237
-0.59849302
0.00084340172
-0.64008918
0.00095717641
-0.68460263
0.0010591704
-0.73224366
0.0011409553
-0.78323825
0.001193323
-0.83782264
0.0012073192
-0.89624982
0.0011755315
-0.95878241
0.0010933417
-1.0256952
0.00095979018
-1.0972773
0.00077766613
-1.1738389
0.00055255184
-1.2556961
0.00029138578
-1.3432175
7.5937381e-05
-0.37411067
0.00018268465
-0.40007467
0.00027006313
-0.42783994
0.00036850867
-0.45753332
0.00047448031
-0.48929153
0.00058832238
-0.52326132
0.00070860103
-0.55960141
0.00083257336
-0.5984822
0.00095583596
-0.64008784
0.0010722062
-0.68461567
0.0011738068
-0.73227651
0.0012514937
-0.78329642
0.0012956924
-0.83791101
0.0012976058
-0.8963719
0.0012505895
-0.95893966
0.0011513682
-1.0258868
0.0010007009
-1.0975004
0.0008031096
-1.1740894
0.00056558463
-1.2559703
0.00029585236
-1.3435134
7.15656e-05
-0.34982392
0.00017265899
-0.37410064
0.00025609225
-0.40006069
0.00035108216
-0.42782252
0.0004544259
-0.45751327
0.00056694192
-0.48927015
0.00068781411
-0.52324053
0.00081508154
-0.55958391
0.0009452338
-0.59847159
0.0010729979
-0.64008863
0.0011912613
-0.68463312
0.0012912823
-0.7323163
0.0013632916
-0.78336402
0.0013975256
-0.83801093
0.0013855876
-0.8965069
0.0013218805
-0.95911017
0.0012047294
-1.0260909
0.0010367469
-1.097734
0.00082419837
-1.174348
0.00057537561
-1.2562498
0.00029858852
-1.3438119
6.7247222e-05
-0.32711468
0.00016264292
-0.34981391
0.00024195876
-0.37408651
0.00033311085
-0.40004272
0.00043318865
-0.42780128
0.00054340907
-0.45748973
0.00066349548
-0.48924583
0.0007922025
-0.52321766
0.00092688254
-0.55956556
0.0010632117
-0.59846181
0.0011949871
-0.64009236
0.001314144
-0.68465598
0.0014111156
-0.73236413
0.0014756325
-0.78344212
0.0014979488
-0.83812329
0.0014703441
-0.89665536
0.0013885637
-0.959294
0.0012527546
-1.0263069
0.0010674747
-1.0979773
0.00084070007
-1.1746134
0.00058184713
-1.2565331
0.00029959762
-1.3441115
6.3016633e-05
-0.30588045
0.00015273987
-0.32710478
0.0002278528
-0.3497998
0.0003149002
-0.3740683
0.00041122898
-0.40002076
0.00051838133
-0.42777625
0.0006365398
-0.45746278
0.00076509553
-0.48921873
0.00090220548
-0.52319298
0.0010444869
-0.55954684
0.0011867258
-0.59845355
0.0013217363
-0.64009995
0.0014404947
-0.68468536
0.0015326789
-0.73242117
0.001587675
-0.78353185
0.0015960034
-0.83824895
0.0015509291
-0.89681773
0.0014498204
-0.95949107
0.0012948293
-1.0265342
0.0010925187
-1.0982291
0.0008524543
-1.174884
0.00058498082
-1.2568185
0.00029891118
-1.3444105
5.8900155e-05
-0.28602509
0.00014303073
-0.30587074
0.00021392623
-0.32709085
0.0002966984
-0.3497816
0.00038892861
-0.374046
0.00049241555
-0.3999948
0.00060772254
-0.42774744
0.00073479246
-0.45743247
0.00087250995
-0.48918903
0.0010183888
-0.52316688
0.0011682257
-0.55952834
0.0013158418
-0.59844765
0.0014530234
-0.64011248
0.0015698046
-0.68472249
0.0016552051
-0.7324887
0.001698468
-0.78363432
0.0016906766
-0.8383887
0.0016263903
-0.8969943
0.0015048696
-0.95970111
0.0013304274
-1.0267721
0.0011115973
-1.0984882
0.0008593841
-1.1751584
0.00058481298
-1.2571044
0.00029658986
-1.344707
5.4917234e-05
-0.267459
0.00013357783
-0.28601564
0.00020029784
-0.30585711
0.00027870354
-0.32707286
0.00036659894
-0.34975927
0.00046597578
-0.37401956
0.00057770464
-0.39996478
0.00070219477
-0.42771484
0.00083897119
-0.45739894
0.00098637357
-0.48915701
0.0011411849
-0.52313984
0.0012982939
-0.55951079
0.0014504832
-0.59844511
0.0015884815
-0.64013115
0.0017014185
-0.6847687
0.0017777981
-0.73256803
0.0018069787
-0.78375062
0.0017809175
-0.83854323
0.0016957898
-0.89718522
0.0015530088
-0.95992369
0.0013591099
-1.0270196
0.0011245306
-1.0987534
0.00086149122
-1.1754351
0.00058143719
-1.2573892
0.00029271796
-1.3449998
5.1081968e-05
-0.25009861
0.00012442821
-0.26744985
0.00018705793
-0.2860024
0.0002610705
-0.30583948
0.00034448957
-0.32705075
0.00043944249
-0.34973274
0.00054704026
-0.37398889
0.00066807637
-0.39993066
0.00080262522
-0.42767849
0.00094976549
-0.45736233
0.001107207
-0.48912304
0.0012709093
-0.52311246
0.0014347603
-0.55949507
0.0015904378
-0.59844707
0.0017275966
-0.64015733
0.0018345395
-0.68482544
0.0018994556
-0.73266051
0.0019121036
-0.7838818
0.0018656572
-0.83871309
0.0017582496
-0.89739046
0.0015936137
-0.9601582
0.0013805488
-1.0272757
0.0011312369
-1.0990231
0.00085886194
-1.1757125
0.00057499483
-1.2576715
0.00028740031
-1.3452872
4.7403895e-05
-0.23386521
0.00011561625
-0.2500898
0.00017427282
-0.26743706
0.00024391751
-0.28598524
0.00032279664
-0.30581779
0.00041312225
-0.32702443
0.00051618643
-0.34970188
0.00063309064
-0.37395391
0.00076436887
-0.3998924
0.00090974377
-0.42763847
0.0010677691
-0.45732289
0.0012354331
-0.48908756
0.0014077693
-0.52308546
0.0015775726
-0.5594822
0.0017353543
-0.59845483
0.0018697096
-0.6401925
0.0019682467
-0.68489424
0.0020190737
-0.73276748
0.0020126827
-0.78402883
0.0019438532
-0.8388987
0.0018129482
-0.89760979
0.0016261708
-0.96040382
0.0013945265
-1.0275389
0.0011317433
-1.099296
0.00085165467
-1.1759891
0.00056566965
-1.2579498
0.00028076027
-1.3455679
4.3887404e-05
-0.21868597
0.00010716568
-0.23385676
0.00016198843
-0.25007752
0.00022733187
-0.26742048
0.00030167075
-0.28596412
0.00038725737
-0.30579192
0.00048551363
-0.32699375
0.00059778004
-0.34966657
0.00072496511
-0.37391451
0.00086733873
-0.39985
0.0010242016
-0.4275949
0.0011934967
-0.45728095
0.0013713862
-0.48905118
0.0015518701
-0.52305976
0.0017265544
-0.5594734
0.001884741
-0.59846986
0.0020140242
-0.64023828
0.0021014844
-0.68497665
0.0021354452
-0.73289024
0.0021075371
-0.78419251
0.0020144903
-0.83910024
0.0018591647
-0.89784279
0.001650287
-0.96065958
0.0014009573
-1.0278082
0.0011261734
-1.0995705
0.00084009413
-1.1762636
0.00055368556
-1.2582227
0.00027292807
-1.3458409
4.0532636e-05
-0.20449203
9.9090737e-05
-0.2186779
0.00015023267
-0.233845
0.00021137498
-0.25006156
0.00028122409
-0.26740003
0.0003620351
-0.2859389
0.00045531658
-0.30576173
0.00056258722
-0.32695856
0.00068505207
-0.34962666
0.00082343449
-0.3738706
0.00097767954
-0.39980348
0.0011465892
-0.427548
0.001327395
-0.45723696
0.0015153203
-0.48901463
0.0017032125
-0.52303642
0.0018813968
-0.55947006
0.0020379537
-0.59849379
0.0021595677
-0.64029636
0.0022330345
-0.68507424
0.0022472756
-0.73302998
0.0021954406
-0.78437346
0.0020765928
-0.83931767
0.0018962631
-0.89808876
0.001665704
-0.96092433
0.0013998789
-1.0280819
0.0011147436
-1.0998452
0.00082447116
-1.1765344
0.00053928872
-1.2584891
0.00026404371
-1.3461049
3.7342379e-05
-0.19121953
9.1398223e-05
-0.20448434
0.00013901604
-0.21866668
0.0001960857
-0.23382971
0.00026153655
-0.25004187
0.00033759612
-0.26737559
0.0004258247
-0.2859094
0.00052786672
-0.30572701
0.00064515429
-0.32691866
0.00077877651
-0.349582
0.00092922045
-0.37382214
0.0010960406
-0.39975293
0.0012774482
-0.42749805
0.001469853
-0.45719149
0.0016674067
-0.48897882
0.0018616716
-0.52301669
0.0020416204
-0.55947372
0.0021941298
-0.59852835
0.0023051478
-0.64036848
0.0023614698
-0.68518843
0.002353029
-0.73318757
0.0022750022
-0.78457187
0.0021291064
-0.83955051
0.0019236666
-0.89834672
0.0016722613
-0.96119671
0.0013914364
-1.0283586
0.0010977667
-1.1001185
0.00080511793
-1.1768002
0.00052274929
-1.2587478
0.00025427237
-1.3463592
-0.0017315769
-0.21026036
8.4095442e-05
-0.19121222
0.00012833551
-0.20447366
0.00018148124
-0.21865208
0.00024265987
-0.23381084
0.0003140417
-0.25001832
0.00039721175
-0.26734698
0.00049389663
-0.28587543
0.00060569502
-0.30568755
0.00073398242
-0.32687387
0.00087969016
-0.34953247
0.0010430151
-0.37376912
0.0012230408
-0.39969852
0.0014172852
-0.42744548
0.0016211976
-0.45714529
0.0018276947
-0.48894484
0.0020269359
-0.52300201
0.0022065108
-0.55948611
0.0023521294
-0.59857533
0.0024492131
-0.64045622
0.0024850627
-0.68532046
0.0024511445
-0.73336371
0.0023449934
-0.78478776
0.0021712104
-0.83979805
0.0019409457
-0.89861541
0.0016699274
-0.9614752
0.0013758702
-1.0286367
0.001075622
-1.100389
0.00078240884
-1.1770598
0.00050434989
-1.2589978
0.00024377469
-1.3466029
-0.0029541985
-0.21080556
-0.0016263805
-0.20854989
0.00011819292
-0.19120208
0.0001675612
-0.20445974
0.00022461882
-0.21863404
0.00029143868
-0.23378823
0.00036960431
-0.24999071
0.00046088944
-0.26731397
0.00056700887
-0.28583675
0.00068955456
-0.30564312
0.00082981213
-0.32682399
0.00098851319
-0.34947797
0.0011654968
-0.37371157
0.0013592847
-0.39964052
0.0015665631
-0.42739085
0.0017816376
-0.45709923
0.0019960431
-0.48891395
0.0021984774
-0.52299398
0.0023749964
-0.55950897
0.002510472
-0.59863659
0.002590326
-0.64056148
0.0026027452
-0.68547206
0.0025409047
-0.73355962
0.0024049676
-0.78502152
0.0022026406
-0.84005975
0.0019480024
-0.89889348
0.0016588674
-0.9617582
0.0013535444
-1.0289146
0.0010487513
-1.1006553
0.00075674618
-1.1773122
0.00048439577
-1.2592385
0.00023269286
-1.3468356
-0.0036832119
-0.21129818
-0.0028100856
-0.20962185
-0.0015346198
-0.20689707
0.0001543311
-0.19118885
0.00020741625
-0.20444253
0.00026982096
-0.21861242
0.0003430875
-0.23376172
0.00042900169
-0.24995882
0.00052935394
-0.26727632
0.00064589347
-0.28579309
0.00078017987
-0.30559349
0.0009333783
-0.32676886
0.0011059661
-0.34941844
0.0012973478
-0.37364964
0.001505349
-0.39957931
0.0017256324
-0.42733484
0.0019512072
-0.45705439
0.0021721239
-0.4888876
0.0023753559
-0.52299434
0.0025459896
-0.55954449
0.0026684019
-0.59871467
0.0027280588
-0.6406868
0.0027140258
-0.68564518
0.0026217253
-0.73377638
0.0024544665
-0.78527334
0.0022232857
-0.84033503
0.0019450662
-0.89917968
0.0016394018
-0.96204405
0.0013249413
-1.0291908
0.0010176289
-1.1009162
0.00072854776
-1.1775564
0.00046319154
-1.259469
0.00022117125
-1.3470568
-0.0039749039
-0.21173463
-0.0035179082
-0.21059035
-0.0026794466
-0.20847702
-0.0014431743
-0.20529957
0.0001910606
-0.1911725
0.00024919565
-0.20442191
0.00031770683
-0.21858704
0.00039834065
-0.23373105
0.00049292256
-0.24992239
0.00060331102
-0.26723373
0.00073127079
-0.28574418
0.00087830886
-0.30553842
0.0010454281
-0.32670832
0.0012327892
-0.34935388
0.0014392357
-0.37358352
0.0016617058
-0.39951538
0.0018947024
-0.42727834
0.002129763
-0.45701203
0.0023552477
-0.48886749
0.002557104
-0.52300545
0.0027193976
-0.55959549
0.0028256014
-0.59881221
0.0028612823
-0.64083405
0.0028173151
-0.68584077
0.0026921248
-0.73401404
0.0024925146
-0.78554257
0.0022328072
-0.84062277
0.0019323411
-0.89947262
0.0016120067
-0.96233112
0.0012905915
-1.0294637
0.00098278026
-1.1011704
0.00069824041
-1.1777914
0.00044101952
-1.2596888
0.00020934836
-1.3472662
-0.0038881557
-0.21211232
-0.0038039406
-0.2114486
-0.0033655771
-0.20990422
-0.0025511689
-0.20736903
-0.0013533713
-0.20375513
0.00022957551
-0.19115288
0.00029347566
-0.20439768
0.00036896647
-0.21855766
0.00045784899
-0.23369598
0.00056204243
-0.24988112
0.00068346035
-0.26718592
0.00082387194
-0.28568974
0.00098470143
-0.30547769
0.0011667411
-0.32664227
0.001369719
-0.34928436
0.0015917327
-0.37351355
0.0018287305
-0.39944941
0.0020737893
-0.42722236
0.0023169878
-0.45697377
0.002545593
-0.48885598
0.002744011
-0.52303006
0.0028945499
-0.55966444
0.0029801583
-0.59893108
0.0029876912
-0.64100443
0.0029105639
-0.68605921
0.0027505886
-0.73427211
0.0025182229
-0.78582799
0.0022308957
-0.84092133
0.001910023
-0.89977064
0.00157725
-0.96261778
0.0012510966
-1.0297321
0.00094475752
-1.101417
0.00066625813
-1.1780167
0.00041814852
-1.2598976
0.0001973535
-1.3474635
-0.0034846248
-0.21242847
-0.0037250693
-0.21219119
-0.0036450106
-0.21116916
-0.0032166447
-0.20923875
-0.0024256788
-0.20629672
-0.0012640503
-0.20226151
0.00027041236
-0.19112981
0.00034090116
-0.20436961
0.00042421189
-0.21852403
0.00052225482
-0.23365619
0.00063703511
-0.2498347
0.00077051802
-0.26713257
0.00092445756
-0.2856295
0.0011001601
-0.30541111
0.001298103
-0.32657066
0.0015174072
-0.34921004
0.0017553635
-0.37344018
0.0020065846
-0.3993822
0.0022630327
-0.42716841
0.0025135966
-0.45694178
0.0027435854
-0.48885555
0.0029349945
-0.52307051
0.0030691936
-0.55975347
0.0031297602
-0.59907315
0.0031053401
-0.64119921
0.0029922952
-0.68630092
0.0027961696
-0.73455006
0.0025311225
-0.78612821
0.0022175458
-0.84122885
0.0018784619
-0.90007185
0.0015357426
-0.96290242
0.0012071006
-1.0299944
0.00090411929
-1.1016548
0.00063301732
-1.1782315
0.00039483634
-1.2600951
0.0001853051
-1.3476488
-0.0028280388
-0.21268103
-0.0033408373
-0.21281271
-0.0035728392
-0.21226336
-0.0034901048
-0.2108957
-0.0030716516
-0.20859278
-0.0023024394
-0.20525833
-0.0011744372
-0.20081666
0.00031417063
-0.19110308
0.00039204506
-0.20433745
0.00048405019
-0.21848582
0.00059220223
-0.23361136
0.00071859506
-0.24978278
0.00086523535
-0.26707335
0.0010338383
-0.28556317
0.0012255015
-0.30533851
0.001440227
-0.32649348
0.0016765053
-0.34913118
0.0019304371
-0.37336404
0.0021958804
-0.39931505
0.0024635348
-0.42711835
0.0027200335
-0.45691822
0.0029479094
-0.48886847
0.0031279482
-0.52312926
0.0032413704
-0.55986508
0.0032726354
-0.59924045
0.003212652
-0.64141956
0.0030613002
-0.68656605
0.0028281316
-0.73484707
0.0025310304
-0.7864417
0.0021930087
-0.8415434
0.0018381896
-0.9003743
0.0014881408
-0.96318346
0.0011592707
-1.0302495
0.0008614101
-1.1018832
0.00059891107
-1.1784356
0.00037132157
-1.2602811
0.00017331004
-1.3478221
-0.0019838264
-0.21286829
-0.0027125494
-0.21330932
-0.0032060204
-0.21317952
-0.0034244441
-0.21232902
-0.0033394957
-0.21062786
-0.0029296818
-0.20796553
-0.0021805385
-0.20425223
-0.0010842009
-0.19941829
0.00036138429
-0.19107242
0.00044747796
-0.20430087
0.00054909291
-0.21844271
0.00066835888
-0.23356112
0.00080745606
-0.249725
0.00096841878
-0.26700793
0.0011528467
-0.28549052
0.0013614845
-0.30525977
0.0015938631
-0.32641083
0.0018474747
-0.34904822
0.0021179798
-0.37328613
0.0023979773
-0.39924949
0.0026757162
-0.42707403
0.0029349925
-0.45690531
0.0031569074
-0.48889743
0.0033213204
-0.52320921
0.0034093794
-0.56000182
0.0034069753
-0.59943477
0.0033080209
-0.64166628
0.003116395
-0.68685432
0.0028458988
-0.73516194
0.0025179489
-0.78676664
0.0021577184
-0.84186293
0.0017898752
-0.90067603
0.0014351617
-0.96345935
0.0011082799
-1.0304964
0.0008171677
-1.1021015
0.0005643013
-1.1786286
0.00034782188
-1.2604556
0.00016146273
-1.3479836
-0.0010186488
-0.21298902
-0.0019033128
-0.21367753
-0.002604009
-0.21391133
-0.0030748819
-0.21352909
-0.0032804074
-0.21238811
-0.0031924855
-0.21036506
-0.0027900818
-0.20735599
-0.0020595107
-0.20327692
-0.00099266917
-0.19806423
0.00041258692
-0.19103753
0.00050777704
-0.20425956
0.00061997701
-0.21839433
0.00075143438
-0.2335051
0.0009044101
-0.24966099
0.0010809033
-0.26693598
0.0012822712
-0.28541131
0.0015089247
-0.30517483
0.0017596173
-0.32632298
0.0020316559
-0.34896189
0.0023195261
-0.37320768
0.0026132765
-0.39918705
0.002898499
-0.42703754
0.0031573762
-0.45690578
0.0033693935
-0.4889455
0.0035134634
-0.5233133
0.0035712521
-0.5601661
0.0035308726
-0.59965762
0.0033898665
-0.64193976
0.0031565815
-0.687165
0.0028491064
-0.73549309
0.0024920762
-0.787101
0.0021122663
-0.84218532
0.0017342932
-0.90097516
0.0013775719
-0.96372865
0.0010547983
-1.030734
0.00077190114
-1.1023091
0.00052952609
-1.1788103
0.00032453122
-1.2606187
0.00014984518
-1.3481334
-0.21304237
-3.6194957e-10
-0.00097743987
-0.21391489
-0.0018275483
-0.21445399
-0.0024984849
-0.21448773
-0.0029476568
-0.21386184
-0.0031400478
-0.21244055
-0.0030484763
-0.21010666
-0.0026526484
-0.20676285
-0.0019388419
-0.20233075
-0.00089937004
-0.19675228
0.00046832024
-0.19099807
0.00057354574
-0.20421313
0.0006973827
-0.21834028
0.00084219827
-0.23344289
0.0010102838
-0.24959037
0.0012034942
-0.26685721
0.0014229644
-0.28532535
0.0016685618
-0.30508377
0.0019390567
-0.32623038
0.0022307181
-0.34887308
0.0025354839
-0.37312989
0.0028410739
-0.39912963
0.0031313471
-0.42701151
0.0033863336
-0.45692272
0.0035838548
-0.48901589
0.0037024066
-0.52344445
0.0037249081
-0.56036014
0.0036424017
-0.59991016
0.0034567498
-0.64223992
0.0031810623
-0.68749695
0.0028376177
-0.73583864
0.0024538131
-0.78744254
0.0020573892
-0.84250841
0.0016722919
-0.90126988
0.0013161659
-0.96399001
0.00099947722
-1.0309616
0.00072608302
-1.1025056
0.00049489262
-1.1789807
0.00030161956
-1.2607705
0.00013852658
-1.348272
-0.21401981
-8.8794283e-11
-0.21304237
0.0010186481
-0.00093863123
-0.21480381
-0.0017539099
-0.21519856
-0.0023961724
-0.21503921
-0.0028237299
-0.21417816
-0.0030029214
-0.2124861
-0.0029070269
-0.20985228
-0.0025165261
-0.20618517
-0.00181802
-0.2014121
-0.00080372556
-0.19548023
0.00052915231
-0.19095368
0.00064543101
-0.20416117
0.00078205109
-0.21828013
0.00094146113
-0.23337407
0.00112589
-0.24951276
0.001337055
-0.2667713
0.0015757853
-0.28523257
0.001842123
-0.30498684
0.00213395
-0.32613361
0.0024451048
-0.34878271
0.0027655881
-0.3730544
0.0030813466
-0.39907963
0.0033737426
-0.42699892
0.0036206065
-0.45695947
0.0037984654
-0.48911195
0.0038860158
-0.52360556
0.0038681511
-0.56058589
0.0037396974
-0.60019311
0.0035073889
-0.64256625
0.0031892679
-0.6878486
0.002811532
-0.73619635
0.0024037547
-0.78778891
0.0019939399
-0.84283006
0.0016047711
-0.90155849
0.0012517422
-0.96424228
0.00094293858
-1.0311785
0.00068014892
-1.1026909
0.00046067327
-1.1791397
0.00027923187
-1.2609112
0.00012756485
-1.3483995
-0.21495844
-5.4780096e-11
-0.21401981
0.00097743971
-0.21298902
0.0019838257
-0.00090092322
-0.21565679
-0.0016825425
-0.21591219
-0.0022965811
-0.21556636
-0.0027027787
-0.2144783
-0.0028683466
-0.21252478
-0.0027676361
-0.20960117
-0.0023814577
-0.20562173
-0.001696526
-0.2005193
-0.00070513323
-0.19424595
0.000595694
-0.19090394
0.0007241405
-0.20410326
0.0008747714
-0.21821344
0.0010500404
-0.23329822
0.0012520824
-0.24942779
0.0014825421
-0.26667805
0.0017425615
-0.28513301
0.0020314254
-0.30488431
0.0023448025
-0.32603331
0.0026749912
-0.34869211
0.0030102639
-0.37298332
0.0033339254
-0.39903981
0.0036247849
-0.42700309
0.0038586329
-0.45701964
0.0040111658
-0.4892371
0.0040619391
-0.52379935
0.0039987511
-0.56084494
0.0038209853
-0.6005067
0.0035407055
-0.64291769
0.0031808817
-0.68821795
0.0027711893
-0.73656379
0.0023426666
-0.78813764
0.0019228674
-0.84314816
0.00153266
-0.90183941
0.0011850834
-0.96448442
0.0008857656
-1.0313841
0.00063449396
-1.1028647
0.00042710401
-1.1792876
0.00025749094
-1.2610411
0.00011701078
-1.3485165
-0.21585936
-7.4579276e-11
-0.21495844
0.00093863112
-0.21391489
0.0019033127
-0.21286829
0.0028280381
-0.0008643757
-0.21647496
-0.0016130912
-0.21659568
-0.0021994488
-0.21606969
-0.0025844203
-0.21476222
-0.0027362753
-0.21255614
-0.0026299023
-0.20935273
-0.0022467831
-0.20507147
-0.0015738215
-0.19965061
-0.00060305529
-0.1930472
0.00066861526
-0.19084842
0.00081043427
-0.20403893
0.0009763625
-0.21813977
0.0011687674
-0.2332149
0.0013898794
-0.24933513
0.0016418387
-0.26657733
0.0019251138
-0.2850267
0.0022370614
-0.30477657
0.0025721903
-0.3259305
0.0029211847
-0.34860303
0.0032697084
-0.37291911
0.003598335
-0.39901336
0.0038832732
-0.42702773
0.0040985625
-0.45710703
0.0042195926
-0.48939476
0.0042276918
-0.52402829
0.0041144806
-0.56113844
0.0038846381
-0.60085064
0.0035558659
-0.64329267
0.0031558619
-0.68860263
0.0027171544
-0.73693828
0.0022714682
-0.78848624
0.0018451929
-0.84346069
0.001456895
-0.90211122
0.0011169402
-0.9647156
0.00082849706
-1.0315781
0.00058946716
-1.1030271
0.00039438783
-1.1794245
0.0002365054
-1.2611606
0.00010691265
-1.3486234
-0.21672374
-2.5595117e-10
-0.21585936
0.00090092307
-0.21480381
0.0018275482
-0.21367753
0.0027125493
-0.21268103
0.0034846242
-0.00082882092
-0.21725923
-0.0015453925
-0.21724974
-0.0021044889
-0.21654962
-0.0024683371
-0.21503016
-0.002606058
-0.21257999
-0.0024935188
-0.20910599
-0.0021121234
-0.20453317
-0.0014491377
-0.19880453
-0.00049680254
-0.19188178
0.00074863807
-0.19078662
0.00090511491
-0.20396768
0.0010876192
-0.21805862
0.0012986527
-0.23312368
0.0015411937
-0.24923448
0.0018167354
-0.26646895
0.0021241364
-0.28491377
0.0024599518
-0.30466433
0.0028172399
-0.32582656
0.0031842522
-0.34851757
0.003543902
-0.37286467
0.0038738099
-0.3990039
0.0041476921
-0.42707686
0.0043381745
-0.45722561
0.0044211493
-0.48958821
0.004380681
-0.52429449
0.0042131727
-0.56146697
0.0039292326
-0.601224
0.003552322
-0.64368913
0.0031144383
-0.68899991
0.0026502087
-0.73731702
0.0021912069
-0.78883225
0.0017619824
-0.84376578
0.0013783982
-0.90237268
0.0010480211
-0.96493512
0.00077162367
-1.0317603
0.0005453668
-1.1031781
0.0003627052
-1.1795507
0.00021637945
-1.2612701
9.7310017e-05
-1.3487208
-0.21755256
-3.898434e-10
-0.21672374
0.0008643752
-0.2156568
0.0017539098
-0.21445399
0.0026040089
-0.21330932
0.0033408373
-0.21242847
0.0038881553
-0.00079417229
-0.21801045
-0.0014792556
-0.21787497
-0.002011485
-0.21700647
-0.0023542025
-0.21528202
-0.0024775436
-0.21259596
-0.0023576673
-0.20886045
-0.0019767751
-0.20400553
-0.0013221605
-0.19797917
-0.00038573831
-0.1907474
0.0008365301
-0.19071804
0.0010089314
-0.20388899
0.0012094811
-0.21796945
0.0014416504
-0.23302413
0.0017077594
-0.24912551
0.0020080237
-0.26635284
0.0023408311
-0.28479465
0.0027014805
-0.30454857
0.0030808752
-0.32572318
0.003464631
-0.3484383
0.0038325621
-0.37282342
0.0041592741
-0.39901548
0.0044161142
-0.4271548
0.0045749275
-0.45737939
0.004613015
-0.48982055
0.0045182621
-0.52459958
0.0042927866
-0.56183052
0.0039536091
-0.60162529
0.0035298257
-0.64410452
0.0030571179
-0.68940682
0.0025713274
-0.73769714
0.0021030284
-0.7891733
0.0016743193
-0.8440617
0.0012980614
-0.90262272
0.00097897982
-0.96514248
0.00071557354
-1.0319305
0.00050246643
-1.1033178
0.0003322284
-1.1796665
0.00019720114
-1.2613699
8.8213459e-05
-1.348809
-0.21834673
-4.6048017e-10
-0.21755256
0.00082882016
-0.21647496
0.001682542
-0.21519856
0.0024984848
-0.21391133
0.0032060203
-0.21281271
0.0037250693
-0.21211232
0.0039749036
-0.0007603346
-0.21872937
-0.0014145034
-0.21847196
-0.00192012
-0.21744056
-0.0022416758
-0.21551789
-0.0023499673
-0.21260366
-0.002222205
-0.20861502
-0.001840497
-0.2034872
-0.0011921308
-0.19717278
-0.00026896757
-0.18964191
0.00093298549
-0.19064209
0.0011227318
-0.20380224
0.0013439897
-0.21787179
0.0015994191
-0.23291579
0.0018904513
-0.24900793
0.0022171269
-0.26622914
0.0025767812
-0.28466995
0.0029628994
-0.3044306
0.0033639679
-0.32562252
0.0037625416
-0.34836828
0.0041351279
-0.37279928
0.0044532271
-0.39905259
0.0046862265
-0.4272661
0.0048059459
-0.45757232
0.0047921894
-0.49009447
0.0046378093
-0.5249446
0.0043514851
-0.5622284
0.0039569066
-0.60205237
0.003488454
-0.64453586
0.0029846724
-0.68982016
0.0024816525
-0.73807576
0.0020081441
-0.78950712
0.0015832825
-0.84434692
0.0012167271
-0.90286046
0.00091040782
-0.96533731
0.00066073321
-1.0320887
0.00046102771
-1.1034466
0.00030310643
-1.1797724
0.00017899648
-1.2614607
7.959961e-05
-1.3488886
-0.21910706
-3.5484279e-10
-0.21834673
0.00079417139
-0.21725923
0.0016130905
-0.21591219
0.002396172
-0.21448773
0.0030748818
-0.21317952
0.0035728391
-0.21219119
0.0038039407
-0.21173463
0.0036832118
-0.00072721943
-0.21941666
-0.0013509784
-0.2190411
-0.0018302047
-0.21785203
-0.0021304383
-0.21573742
-0.0022234484
-0.21260242
-0.0020864591
-0.20836906
-0.0017023063
-0.20297702
-0.0010583381
-0.19638341
-0.00014620459
-0.18856272
0.0010387467
-0.19055811
0.0012486894
-0.20370694
0.0014926935
-0.21776506
0.00177289
-0.23279823
0.0020908577
-0.24888167
0.002445773
-0.26609813
0.0028335252
-0.28454058
0.0032454744
-0.3043121
0.0036672341
-0.32552721
0.0040779802
-0.34831113
0.0044506317
-0.37279668
0.0047537487
-0.39912012
0.0049552921
-0.42741545
0.0050280439
-0.45780818
0.0049555532
-0.49041222
0.0047367973
-0.52532991
0.0043876876
-0.56265918
0.0039386116
-0.60250253
0.0034286135
-0.6449798
0.0028981181
-0.69023663
0.0023824573
-0.73845007
0.0019078035
-0.78983164
0.0014899189
-0.84462011
0.0011351772
-0.90308523
0.00084284133
-0.96551942
0.00060747525
-1.0322352
0.00042127983
-1.1035648
0.00027539939
-1.1798688
0.00016170728
-1.2615428
7.1450988e-05
-1.34896
-0.21983428
-2.491568e-10
-0.21910706
0.00076033391
-0.21801045
0.0015453916
-0.21659568
0.0022965805
-0.21503921
0.0029476566
-0.21352909
0.0034244441
-0.21226336
0.0036450105
-0.2114486
0.0035179084
-0.21129818
0.0029541986
-0.00069472833
-0.22007291
-0.0012884816
-0.21958282
-0.0017414534
-0.21824101
-0.0020201466
-0.21594072
-0.0020969792
-0.2125919
-0.0019499227
-0.20812144
-0.0015617811
-0.20247358
-0.00092004726
-0.19560956
-1.6469225e-05
-0.1875075
0.0011561683
-0.19046558
0.0013882017
-0.20360245
0.0016565346
-0.2176487
0.0019637633
-0.23267114
0.0023108022
-0.24874669
0.0026957381
-0.26596034
0.0031126712
-0.28440777
0.0035503868
-0.30419526
0.003991237
-0.32544047
0.0044105837
-0.34827109
0.0047776863
-0.37282062
0.0050584351
-0.39922326
0.0052201459
-0.42760755
0.005237768
-0.45809039
0.0050999525
-0.49077537
0.0048128699
-0.52575509
0.0044001448
-0.56312071
0.0038985858
-0.6029725
0.0033510351
-0.64543271