/*--------------------------------*- C++ -*----------------------------------*\
  =========                 |
  \\      /  F ield         | OpenFOAM: The Open Source CFD Toolbox
   \\    /   O peration     | Website:  https://openfoam.org
    \\  /    A nd           | Version:  8
     \\/     M anipulation  |
\*---------------------------------------------------------------------------*/
FoamFile
{
    version     2.0;
    format      ascii;
    class       volScalarField;
    location    "0.966377";
    object      pMean;
}
// * * * * * * * * * * * * * * * * * * * * * * * * * * * * * * * * * * * * * //

dimensions      [0 2 -2 0 0 0 0];

internalField   nonuniform List<scalar> 
9200
(
7.2974352e-05
6.9245612e-05
0.00022032139
6.4814681e-05
0.00020788911
0.00036748941
5.7739028e-05
0.00019379139
0.00034640615
0.00052025475
4.9517118e-05
0.00017281337
0.00032215687
0.00049064902
0.00068079191
4.0560447e-05
0.00014831135
0.00028707282
0.00045603983
0.00064235317
0.00085197925
3.1265269e-05
0.00012154882
0.00024627363
0.00040630984
0.00059704873
0.00080422635
0.0010360272
2.1936909e-05
9.3728911e-05
0.00020181255
0.00034855577
0.00053206642
0.00074770851
0.00097836697
0.001234896
1.2807066e-05
6.5784418e-05
0.00015563252
0.00028568639
0.00045659259
0.00066661627
0.00090998037
0.0011666614
0.0014502652
4.0443317e-06
3.8421471e-05
0.0001092587
0.00022041618
0.00037443013
0.00057237823
0.00081174625
0.001085646
0.0013707434
0.0016835763
-4.233577e-06
1.2153155e-05
6.3854011e-05
0.00015487796
0.00028911316
0.00046972871
0.00069750191
0.00096908969
0.0012762669
0.0015920316
0.0019360481
-1.1964116e-05
-1.2667198e-05
2.0265301e-05
9.0701857e-05
0.000203418
0.00036307665
0.00057294745
0.00083342383
0.0011400994
0.0014832154
0.0018317426
0.0022086862
-1.9115791e-05
-3.5830145e-05
-2.0926213e-05
2.9078047e-05
0.00011947009
0.00025588663
0.00044342575
0.00068534996
0.00098146358
0.0013260723
0.0017076856
0.0020909008
0.0025022884
-2.5671282e-05
-5.7225138e-05
-5.9356335e-05
-2.9173571e-05
3.882528e-05
0.00015081645
0.00031314097
0.00053120783
0.00080809796
0.0011428213
0.0015281613
0.0019507023
0.0023703426
0.0028174473
-3.1634452e-05
-7.6806703e-05
-9.4829717e-05
-8.353529e-05
-3.7440799e-05
4.9817446e-05
0.00018532777
0.00037599714
0.00062740531
0.00094226967
0.0013185884
0.0017473823
0.0022131252
0.0026707188
0.003154552
-3.702385e-05
-9.4589414e-05
-0.00012727932
-0.00013372826
-0.00010864529
-4.5755645e-05
6.2369985e-05
0.00022357951
0.00044524079
0.00073295111
0.0010888702
0.0015097536
0.0019846189
0.0024956509
0.0029924954
0.0035137882
-4.1867677e-05
-0.00011063053
-0.00015673454
-0.00017965722
-0.00017441733
-0.00013503751
-5.4068987e-05
7.6814056e-05
0.00026614799
0.00052163916
0.00084873861
0.0012488378
0.0017172076
0.0022406226
0.0027988128
0.0033359529
0.0038951407
-4.6200097e-05
-0.00012501614
-0.00018329475
-0.00022136397
-0.00023462686
-0.00021755284
-0.00016291878
-6.2292211e-05
9.3509497e-05
0.00031361868
0.00060595009
0.00097562811
0.0014230483
0.001941747
0.0025160142
0.0031229807
0.0037011869
0.0042983967
-5.005851e-05
-0.00013785051
-0.00020710693
-0.00025898874
-0.00028932369
-0.0002931284
-0.00026358337
-0.00019243667
-7.0283866e-05
0.00011284892
0.00036659362
0.00069892821
0.0011144514
0.0016123175
0.0021840746
0.0028112828
0.0034683602
0.0040881098
0.0047231504
-5.348151e-05
-0.00014924789
-0.00022834825
-0.00029273899
-0.00033868704
-0.00036181725
-0.00035583546
-0.00031288266
-0.00022366533
-7.7850024e-05
0.0001352631
0.00042569696
0.00080132972
0.0012660148
0.001817402
0.0024447955
0.0031267838
0.0038349927
0.0044964522
0.0051688103
-5.6507214e-05
-0.00015932644
-0.00024721261
-0.00032286459
-0.00038298456
-0.00042383582
-0.00043972528
-0.00042333553
-0.00036573381
-0.00025661037
-8.4741132e-05
0.00016122558
0.00049157972
0.00091391615
0.0014311006
0.0020390022
0.0027244168
0.0034627378
0.0042227556
0.0049257682
0.0056346095
-5.9172454e-05
-0.00016820426
-0.00026390059
-0.00034963874
-0.00042253992
-0.00047951261
-0.0005155042
-0.00052383495
-0.00049611097
-0.00042233852
-0.00029120806
-9.0648821e-05
0.00019125687
0.0005649239
0.0010374572
0.001610468
0.00227776
0.0030233455
0.0038192281
0.0046313645
0.0053754418
0.0061196163
-6.1512107e-05
-0.00017599616
-0.00027861203
-0.00037334367
-0.00045770781
-0.00052924761
-0.00058356245
-0.00061466419
-0.00061481609
-0.00057455258
-0.0004828185
-0.00032732376
-9.5202516e-05
0.00022592854
0.00064644615
0.0011727323
0.0018048534
0.002534254
0.0033418846
0.0041962
0.0050603765
0.0058446946
0.0066227482
-6.3558004e-05
-0.00018281134
-0.00029154079
-0.0003942602
-0.00048885516
-0.00057348084
-0.00064437948
-0.00069627587
-0.00072216002
-0.00071323901
-0.00065896306
-0.0005472158
-0.00036474972
-9.7965969e-05
0.00026586716
0.00073690057
0.0013205316
0.0020149733
0.0028089969
0.0036802301
0.0045934607
0.0055091944
0.0063325959
0.0071427876
-6.533908e-05
-0.0001887534
-0.0003028714
-0.00041266031
-0.00051634739
-0.00061266869
-0.00069848553
-0.00076923241
-0.00081865772
-0.00083873001
-0.00081957961
-0.00074955913
-0.00061549199
-0.00040320275
-9.8433526e-05
0.00031175818
0.0008370818
0.0014816567
0.002241519
0.0031024314
0.0040384676
0.0050106786
0.0059770731
0.0068380756
0.0076783999
-6.6881613e-05
-0.00019391929
-0.00031277667
-0.00042880231
-0.0005405388
-0.0006472666
-0.0007464325
-0.00083415971
-0.00090495786
-0.00095160172
-0.00096501314
-0.00093422334
-0.00084647234
-0.00068752698
-0.00044232058
-9.6025077e-05
0.00036435086
0.00094782754
0.001656923
0.0024851509
0.0034149254
0.0044165683
0.005447385
0.0064631281
0.0073599388
0.0082281521
-6.820738e-05
-0.00019839873
-0.0003214164
-0.00044292771
-0.0005617661
-0.00067771686
-0.00078877255
-0.00089171195
-0.0009817877
-0.0010525918
-0.0010958983
-0.0011015546
-0.0010574674
-0.00094974869
-0.00076311593
-0.00048165764
-9.0082965e-05
0.00042445863
0.0010700146
0.001847155
0.0027464912
0.0037467632
0.0048143845
0.0059029764
0.0069663456
0.0078968798
0.008790542
-6.9330753e-05
-0.00020227518
-0.00032893698
-0.00045525954
-0.00058034437
-0.0007044404
-0.000826043
-0.00094254561
-0.001049911
-0.0011425346
-0.0012130638
-0.0012522415
-0.0012488095
-0.0011895216
-0.0010593484
-0.00084197105
-0.00052069054
-7.9878329e-05
0.00049295487
0.0012045592
0.0020531797
0.0030261154
0.0040981361
0.0052316446
0.0063767187
0.0074855932
0.0084475028
0.0093639974
-7.0263228e-05
-0.00020562575
-0.00033547165
-0.00046600181
-0.00059656491
-0.00072783166
-0.00085875609
-0.00098730097
-0.0011100968
-0.0012223109
-0.0013174562
-0.0013872043
-0.0014212337
-0.0014071448
-0.0013305136
-0.0011751577
-0.00092373465
-0.00055881768
-6.4586079e-05
0.00057081321
0.0013524619
0.0022758574
0.0033245713
0.0044691482
0.0056679542
0.0068677508
0.0080196332
0.0090103455
0.0099468148
-7.1031298e-05
-0.00020851743
-0.00034114039
-0.00047534023
-0.0006106945
-0.00074825571
-0.00088739248
-0.0010265895
-0.001163097
-0.0012928113
-0.0014100813
-0.001507507
-0.0015757515
-0.0016033906
-0.0015768537
-0.0014805084
-0.0012969924
-0.0010079305
-0.00059526763
-4.3204208e-05
0.00065913302
0.001514765
0.0025160195
0.0036423522
0.0048598144
0.0061228019
0.007375094
0.0085671381
0.0095838712
0.010537351
-7.1433264e-05
-0.00021099674
-0.00034604375
-0.00048344235
-0.00062297647
-0.00076604729
-0.00091239758
-0.0010609859
-0.0012096312
-0.0013549087
-0.0014919603
-0.0016142883
-0.0017135485
-0.0017793592
-0.001799163
-0.0017581712
-0.0016394758
-0.0014244808
-0.0010938577
-0.00062912826
-1.4809233e-05
0.00075878536
0.001692265
0.0027742604
0.0039797155
0.0052700011
0.006595556
0.0078976634
0.0091267085
0.010166425
0.011134063
-7.1688374e-05
-0.00021261075
-0.00035025675
-0.00049044862
-0.00063363072
-0.0007815121
-0.00093418024
-0.0010910232
-0.0012503766
-0.0014094406
-0.0015640977
-0.0017087098
-0.0018359042
-0.0019363608
-0.0019986233
-0.0020089381
-0.0019511894
-0.0018071535
-0.001557106
-0.0011810825
-0.00066011964
2.1021481e-05
0.00087045408
0.0018857387
0.0030511727
0.0043367997
0.0056993721
0.0070854419
0.0084342795
0.0096968847
0.010756437
0.011735356
-7.1867751e-05
-0.00021357791
-0.00035303764
-0.00049646272
-0.00064284135
-0.00079492676
-0.00095311421
-0.0011171912
-0.0012859624
-0.0014571962
-0.001627459
-0.0017919184
-0.0019441308
-0.0020758226
-0.0021766698
-0.0022340619
-0.002232908
-0.0021557967
-0.0019834458
-0.0016952437
-0.0012699121
-0.00068789486
6.5302241e-05
0.00099545281
0.0020963695
0.0033475491
0.0047138388
0.006147458
0.0075915523
0.0089836773
0.010276128
0.011352406
0.012339647
-7.198197e-05
-0.00021441957
-0.00035460686
-0.00050036791
-0.0006507426
-0.00080652178
-0.00096953809
-0.0011399382
-0.0013169668
-0.0014989098
-0.001682956
-0.0018650189
-0.0020395288
-0.0021992175
-0.0023348834
-0.0024351024
-0.0024859618
-0.0024711808
-0.0023725469
-0.0021694227
-0.0018392709
-0.0013594965
-0.00071070819
0.00011998859
0.0011355115
0.0023254562
0.0036641406
0.0051110076
0.0066137738
0.0081128621
0.0095445125
0.010862874
0.011952761
0.012945402
-7.2044337e-05
-0.00021514207
-0.00035598937
-0.00050238923
-0.00065574988
-0.0008164612
-0.00098373249
-0.0011596707
-0.0013439201
-0.0015352571
-0.001731438
-0.0019290571
-0.0021233548
-0.0023080114
-0.0024749083
-0.0026138016
-0.0027120422
-0.0027547188
-0.0027250144
-0.0026028187
-0.0023651224
-0.001987688
-0.0014477341
-0.00072655817
0.0001869044
0.0012922186
0.0025741799
0.0040015416
0.005528265
0.0070977576
0.0086482502
0.010115386
0.011455639
0.01255596
0.013551142
-7.2067298e-05
-0.0002157525
-0.00035718791
-0.00050417824
-0.00065808835
-0.00082256988
-0.00099589103
-0.0011767234
-0.0013673035
-0.001566858
-0.0017736876
-0.0019850082
-0.0021968005
-0.0024036255
-0.0025983892
-0.002771989
-0.0029130588
-0.0030082322
-0.0030421799
-0.0029957624
-0.0028461544
-0.0025687307
-0.0021387119
-0.0015330876
-0.00073388475
0.00026768191
0.0014670965
0.0028436713
0.004360243
0.0059654303
0.0075986633
0.0091965155
0.010694853
0.012052939
0.013160503
0.01415546
-7.2063476e-05
-0.00021625933
-0.00035820727
-0.00050573092
-0.000660174
-0.00082506753
-0.0010031089
-0.0011913182
-0.0013875101
-0.0015942765
-0.0018104238
-0.002033772
-0.0022609792
-0.0024874107
-0.0027069267
-0.0029115063
-0.0030910434
-0.0032337941
-0.0033259218
-0.0033494974
-0.0032825188
-0.0031008908
-0.0027790949
-0.0022913354
-0.0016142657
-0.00073107341
0.00036402845
0.0016616486
0.0031349878
0.0047406492
0.0064221917
0.0081155862
0.0097563838
0.011281402
0.012653257
0.013764944
0.014757026
-7.2045076e-05
-0.00021666948
-0.00035905545
-0.00050705105
-0.00066199094
-0.00082732047
-0.0010055862
-0.00119966
-0.0014047876
-0.0016179684
-0.0018423014
-0.0020761761
-0.002316919
-0.0025606313
-0.0028020458
-0.003034152
-0.0032480514
-0.0034336074
-0.0035784622
-0.0036659722
-0.0036754731
-0.0035840581
-0.0033665078
-0.0029956508
-0.0024444884
-0.0016897242
-0.00071630963
0.00047773592
0.0018773424
0.003449036
0.0051430103
0.0068980766
0.0086475073
0.010326513
0.011873553
0.013255121
0.014367905
0.015354595
-7.2021947e-05
-0.00021698631
-0.00035973906
-0.00050814909
-0.000663539
-0.00082929365
-0.0010078599
-0.001201908
-0.0014142722
-0.0016382035
-0.0018698442
-0.0021129762
-0.0023655673
-0.0026244563
-0.0028851759
-0.0031416431
-0.0033860934
-0.0036099176
-0.0038021986
-0.0039475883
-0.0040270677
-0.0040193908
-0.0039003945
-0.0036427893
-0.003217597
-0.0025968457
-0.0017577197
-0.00068762681
0.00061067939
0.0021156274
0.0037865952
0.0055673753
0.0073924606
0.0091933
0.010905511
0.012469877
0.013857109
0.01496808
0.015947012
-7.2007373e-05
-0.00021720917
-0.00036026277
-0.00050903449
-0.00066482989
-0.00083098027
-0.0010098666
-0.0012040321
-0.0014160501
-0.0016488533
-0.001893338
-0.0021447689
-0.0024077909
-0.0026799653
-0.0029576404
-0.0032355904
-0.0035070916
-0.0037649456
-0.0039996045
-0.0041970012
-0.0043398951
-0.0044089794
-0.0043816829
-0.0042316106
-0.0039292958
-0.0034439639
-0.0027468876
-0.0018162795
-0.00064289024
0.00076479161
0.002377894
0.0041483025
0.0060136017
0.0079045723
0.0097517382
0.011491948
0.013068926
0.014457855
0.015564244
0.016533215
-0.00021733696
-7.2007216e-05
-0.00036062979
-0.00050971445
-0.00066587451
-0.00083239271
-0.0010115894
-0.0012059297
-0.0014178291
-0.0016498863
-0.0019051787
-0.0021718476
-0.0024442644
-0.0027281481
-0.0030206638
-0.0033174873
-0.0036128502
-0.0039008318
-0.0041731442
-0.0044169733
-0.0046168673
-0.0047555671
-0.004812437
-0.0047627167
-0.0045776777
-0.0042254899
-0.0036735834
-0.0028928357
-0.0018631961
-0.00057981783
0.0009420273
0.0026654355
0.0045346206
0.0064813572
0.008433476
0.010321507
0.01208437
0.013669266
0.015056061
0.016155258
0.017112236
-0.00036084177
-0.00021733677
-7.2021511e-05
-0.00051019407
-0.0006666812
-0.0008335424
-0.0010130409
-0.0012075694
-0.0014194534
-0.0016510982
-0.0019051537
-0.0021849078
-0.0024752769
-0.0027697628
-0.0030753721
-0.003388716
-0.0037050466
-0.0040195959
-0.0043252073
-0.0046102624
-0.0048610365
-0.0050623024
-0.0051955299
-0.0052380743
-0.0051628693
-0.0049385271
-0.0045306692
-0.0039050389
-0.003032621
-0.0018960233
-0.00049600075
0.0011443254
0.0029794082
0.0049458154
0.0069701115
0.0089780826
0.010901219
0.012681303
0.014269509
0.015650506
0.016740074
0.017683201
-0.00051047628
-0.00036084144
-0.00021720862
-7.2044414e-05
-0.00066725601
-0.00083443786
-0.0010142323
-0.0012089632
-0.0014208726
-0.0016522634
-0.0019055485
-0.0021834704
-0.002489588
-0.0028050767
-0.0031226121
-0.0034505518
-0.0037852342
-0.0041231101
-0.0044580624
-0.0047795456
-0.0050754679
-0.0053325366
-0.0055343558
-0.005660649
-0.0056866347
-0.0055825415
-0.0053139947
-0.0048439233
-0.004136621
-0.0031638613
-0.0019120807
-0.00038893714
0.0013735631
0.0033207928
0.005381933
0.0074791387
0.0095371665
0.011489421
0.013281263
0.014868319
0.01624005
0.017317734
0.018245329
-0.00066760254
-0.00051047576
-0.00036062885
-0.00021698542
-7.2062645e-05
-0.0008350853
-0.0010151716
-0.001210122
-0.0014220976
-0.0016533065
-0.0019060453
-0.0021827677
-0.0024863377
-0.0028206724
-0.0031626063
-0.0035039374
-0.0038548696
-0.0042130796
-0.004573819
-0.0049273641
-0.005263146
-0.0055696666
-0.005832589
-0.0060340734
-0.0061519718
-0.0061589545
-0.0060221295
-0.0057037814
-0.005164077
-0.0043662686
-0.0032838452
-0.0019084692
-0.00025607531
0.0016315064
0.003690357
0.0058427842
0.0080075184
0.010109381
0.01208462
0.013882823
0.015464434
0.016823639
0.017887365
0.018797935
-0.00083548844
-0.0006676019
-0.00051019255
-0.00036026129
-0.00021666828
-7.206635e-05
-0.0010158647
-0.0012110524
-0.0014231382
-0.0016542367
-0.0019065369
-0.0021823618
-0.0024842242
-0.0028151561
-0.0031795211
-0.0035490149
-0.0039150264
-0.0042911455
-0.0046743752
-0.0050560868
-0.0054269111
-0.0057770187
-0.0060939927
-0.0063623615
-0.006562731
-0.0066707064
-0.0066559655
-0.0064819955
-0.0061073928
-0.0054896254
-0.0045915176
-0.0033895211
-0.0018821015
-9.4866629e-05
0.0019197575
0.0040886223
0.006327935
0.0085541458
0.010693276
0.0126853
0.014484604
0.016056656
0.017400298
0.018448188
0.019340422
-0.001016315
-0.0008354877
-0.00066725413
-0.00050971204
-0.00035973718
-0.00021625787
-7.2043328e-05
-0.0012117595
-0.0014239988
-0.0016550617
-0.0019070304
-0.0021821059
-0.0024826546
-0.0028112823
-0.0031712287
-0.0035672831
-0.0039657062
-0.0043586358
-0.0047615159
-0.0051678461
-0.0055694159
-0.0059577688
-0.0063222762
-0.006649678
-0.0069232793
-0.0071218255
-0.0072182559
-0.007178684
-0.0069624161
-0.006524067
-0.0058186549
-0.0048094678
-0.0034775007
-0.0018297456
9.7173234e-05
0.0022397028
0.0045158356
0.0068367027
0.0091177441
0.011287321
0.013289948
0.015085244
0.016643853
0.017969136
0.018999533
0.019872269
-0.001212246
-0.001016314
-0.00083508313
-0.0006666782
-0.0005090314
-0.00035905335
-0.00021575086
-7.1980972e-05
-0.0014246832
-0.0016557835
-0.0019075305
-0.0021820038
-0.0024814328
-0.0028082584
-0.0031652103
-0.0035556356
-0.0039853856
-0.004415429
-0.0048368432
-0.0052646373
-0.0056930554
-0.0061148889
-0.006520995
-0.0069001615
-0.0072382202
-0.0075170338
-0.0077131366
-0.0077962314
-0.0077281786
-0.0074635128
-0.0069526863
-0.0061487545
-0.0050167498
-0.0035440796
-0.0017480842
0.00032239728
0.0025924633
0.004971948
0.0073681599
0.0096968845
0.011889932
0.013897066
0.015683428
0.017224968
0.01852939
0.019540837
0.020393021
-0.0014251928
-0.0012122448
-0.0010158618
-0.00083443442
-0.00066587061
-0.00050814557
-0.00035820516
-0.00021514036
-7.1866869e-05
-0.0016564034
-0.0019080354
-0.0021820566
-0.0024805589
-0.0028058278
-0.0031604129
-0.0035470561
-0.0039696561
-0.0044365226
-0.004900231
-0.0053483069
-0.0058000668
-0.0062510707
-0.0066934841
-0.0071177985
-0.0075121749
-0.00786141
-0.0081456697
-0.0083387695
-0.0084064489
-0.0083055191
-0.007985159
-0.0073916703
-0.0064769507
-0.0052095075
-0.0035852777
-0.0016337862
0.00058295729
0.00297885
0.0054566016
0.0079211466
0.010290014
0.01249949
0.014505153
0.016277899
0.017799095
0.019080438
0.02007156
0.020902308
-0.0016569215
-0.0014251916
-0.0012117562
-0.001015167
-0.00083353795
-0.00066482538
-0.00050704741
-0.00035718604
-0.00021441793
-7.1687726e-05
-0.0019085437
-0.0021822575
-0.0024800286
-0.002803986
-0.0031565054
-0.0035401426
-0.0039579722
-0.0044158597
-0.0049226472
-0.0054184934
-0.0058925733
-0.0063688142
-0.006842774
-0.0073063389
-0.0077496224
-0.0081601176
-0.0085214383
-0.0088116564
-0.0090011852
-0.0090509081
-0.0089116937
-0.0085268633
-0.0078388494
-0.0067996455
-0.0053834009
-0.0035968997
-0.0014835898
0.00088073386
0.0033993262
0.0059691265
0.0084942961
0.01089548
0.013114334
0.015112695
0.016867547
0.018365512
0.019621648
0.020591067
0.021399909
-0.0019090534
-0.0016569201
-0.0014246795
-0.0012110472
-0.0010142263
-0.00083238758
-0.00066353426
-0.00050572757
-0.00035598801
-0.00021357646
-7.1432872e-05
-0.0021826015
-0.0024798288
-0.002802722
-0.0031534779
-0.0035344773
-0.0039484327
-0.0044006308
-0.0048957365
-0.0054418862
-0.0059698572
-0.0064705451
-0.0069716629
-0.0074692026
-0.0079547908
-0.0084182016
-0.0088462114
-0.0092209956
-0.0095179544
-0.0097032197
-0.0097317389
-0.0095474942
-0.0090876281
-0.0082913447
-0.0071125657
-0.005533635
-0.0035746169
-0.0012943944
0.0012172692
0.0038539819
0.006508558
0.0090860589
0.011511514
0.013732749
0.015718333
0.017451482
0.0189234
0.020152089
0.02109885
0.021885718
-0.002183084
-0.0019090518
-0.0016563993
-0.001423993
-0.0012101153
-0.001013034
-0.0008309749
-0.0006619864
-0.00050417561
-0.00035460626
-0.00021260965
-7.1031114e-05
-0.0024799499
-0.0028020146
-0.0031513125
-0.0035300369
-0.0039406059
-0.0043878479
-0.0048764657
-0.0054088001
-0.0059940848
-0.0065551183
-0.0070829311
-0.0076095295
-0.0081315505
-0.008640446
-0.0091256839
-0.0095732229
-0.0099633694
-0.010268081
-0.010448074
-0.01045111
-0.010213368
-0.0096657781
-0.0087454681
-0.0074107378
-0.0056550172
-0.0035140672
-0.0010633566
0.0015937098
0.0043425312
0.0070736527
0.0096946731
0.012136213
0.014353124
0.016321051
0.018028693
0.019471317
0.020670916
0.021595248
0.0223826
-0.0024803842
-0.0021830821
-0.001908539
-0.0016557771
-0.0014231307
-0.0012089556
-0.0010115822
-0.0008292885
-0.00066017016
-0.00050238769
-0.00035303795
-0.00021099599
-7.0263115e-05
-0.002801848
-0.003149978
-0.0035267935
-0.0039344567
-0.0043772599
-0.0048601319
-0.005384715
-0.0059538432
-0.0065800288
-0.007174882
-0.0077305229
-0.0082834334
-0.0088312501
-0.0093652899
-0.009874777
-0.010344586
-0.010752559
-0.011066153
-0.011239268
-0.011211093
-0.010909232
-0.010258771
-0.0091966244
-0.0076884929
-0.005742045
-0.0034109735
-0.00078798421
0.002010775
0.0048643125
0.0076628373
0.010318131
0.012767759
0.014974272
0.016919731
0.018597209
0.02000787
0.021178918
0.022103821
0.022900365
-0.0028022104
-0.0024803821
-0.0021825961
-0.001908028
-0.0016550535
-0.0014220892
-0.0012075615
-0.0010098598
-0.00082731607
-0.00065808564
-0.0005003676
-0.0003502577
-0.00020851693
-6.9330636e-05
-0.0031494512
-0.0035247056
-0.0039299146
-0.0043689539
-0.0048464774
-0.0053644015
-0.0059243235
-0.0065313669
-0.00720018
-0.0078297846
-0.0084141506
-0.0089946033
-0.0095700557
-0.010131853
-0.010668886
-0.011164561
-0.01159338
-0.011916902
-0.012080546
-0.012013482
-0.011634248
-0.010863038
-0.0096392402
-0.0079395129
-0.0057890263
-0.0032612709
-0.00046620602
0.0024687291
0.0054182046
0.0082741523
0.010954479
0.013404875
0.015594853
0.017511666
0.019154857
0.020534776
0.021702128
0.022632147
0.023424782
-0.003149715
-0.002802208
-0.0024799438
-0.002182249
-0.0019075211
-0.0016542274
-0.0014208639
-0.0012059224
-0.0010078541
-0.00082506437
-0.00065574856
-0.00049646342
-0.00034604488
-0.00020562551
-6.8207248e-05
-0.0035237415
-0.0039269188
-0.0043627732
-0.0048357359
-0.0053474368
-0.0058994295
-0.0064957039
-0.0071415948
-0.0078551242
-0.0085203996
-0.0091348345
-0.0097445124
-0.010350223
-0.010943353
-0.01151231
-0.012038402
-0.012491543
-0.012825649
-0.012975726
-0.012859553
-0.012386553
-0.011473818
-0.01006673
-0.0081569218
-0.0057902265
-0.0030612169
-9.643667e-05
0.0029672531
0.0060025325
0.0089056374
0.011602424
0.014045982
0.01621116
0.018093504
0.019704472
0.021084665
0.022244401
0.023169425
0.02395554
-0.0035238784
-0.0031497124
-0.002801841
-0.0024798193
-0.0021820457
-0.0019070198
-0.0016532969
-0.0014194453
-0.0012040263
-0.0010055821
-0.00082256833
-0.00065074251
-0.00049044972
-0.00034114161
-0.00020227515
-6.6881473e-05
-0.0039254257
-0.004358619
-0.0048276921
-0.005334031
-0.0058787141
-0.0064655086
-0.0070991814
-0.007785063
-0.0085451809
-0.0092474716
-0.0098937569
-0.010535062
-0.011174652
-0.011803922
-0.012410468
-0.012972502
-0.013453718
-0.013798215
-0.013928477
-0.013749769
-0.013163002
-0.012085021
-0.010471523
-0.0083334243
-0.0057400102
-0.0028074997
0.00032223612
0.0035052932
0.0066155389
0.0095561278
0.012260195
0.014686144
0.016818572
0.018669495
0.020288629
0.021654554
0.022797592
0.023714936
0.024492324
-0.0039254028
-0.0035238755
-0.0031494434
-0.0028020036
-0.0024800164
-0.0021819915
-0.0019065261
-0.0016522547
-0.0014178225
-0.0012019043
-0.0010031069
-0.000816461
-0.00064284192
-0.0004834436
-0.00033547294
-0.00019839885
-6.5338936e-05
-0.0043564411
-0.0048222151
-0.0053239493
-0.005862308
-0.0064404412
-0.0070628996
-0.007734438
-0.0084614905
-0.0092709077
-0.010011827
-0.010692428
-0.011368724
-0.012047125
-0.012718874
-0.0133701
-0.013974554
-0.01448754
-0.014840761
-0.014942026
-0.014683419
-0.013958914
-0.012689138
-0.010845148
-0.0084614558
-0.0056329886
-0.0024974941
0.00078981986
0.0040816068
0.0072564165
0.010223774
0.012921417
0.015319216
0.017423409
0.019296218
0.020894869
0.02223748
0.023360485
0.024268152
0.025034781
-0.0043561985
-0.0039253996
-0.0035237329
-0.0031499658
-0.0028027081
-0.0024805454
-0.0021820935
-0.0019060355
-0.0016510913
-0.001416046
-0.001199659
-0.00099589081
-0.00080652237
-0.00063363176
-0.00047534159
-0.00032893833
-0.00019391951
-6.3557856e-05
-0.0048192468
-0.0053170368
-0.0058499294
-0.0064205709
-0.0070327821
-0.0076913361
-0.0084016091
-0.0091710561
-0.01003298
-0.01081446
-0.011532844
-0.012248777
-0.012972617
-0.01369496
-0.014399531
-0.015053667
-0.015601541
-0.015959527
-0.016018771
-0.015658222
-0.014767848
-0.013277234
-0.011178353
-0.0085333451
-0.0054643446
-0.0021295997
0.0013060165
0.0046960727
0.0079234447
0.010900559
0.013578067
0.015954099
0.018100598
0.019949201
0.021516305
0.022831405
0.023932476
0.024828471
0.025582492
-0.0048187434
-0.004356195
-0.0039254163
-0.003524692
-0.0031512969
-0.0028039704
-0.0024814193
-0.0021823507
-0.0019055411
-0.0016498823
-0.001414271
-0.0011913194
-0.00098373314
-0.00079492804
-0.00062297791
-0.00046600328
-0.00032141781
-0.0001887537
-6.1511957e-05
-0.0053132155
-0.0058413998
-0.0064055427
-0.0070088984
-0.0076554903
-0.0083506481
-0.0091004941
-0.0099141811
-0.010832006
-0.011656705
-0.012417704
-0.013179646
-0.013957571
-0.014740716
-0.015508897
-0.016220427
-0.016804993
-0.017160474
-0.017159799
-0.016669961
-0.015581435
-0.013838968
-0.011461236
-0.0085416928
-0.0052303006
-0.0017026231
0.0018718469
0.0053474349
0.0086068036
0.011576134
0.014242272
0.016689664
0.018810651
0.020619792
0.022149846
0.023435658
0.024512799
0.025395252
0.026135024
-0.0053124296
-0.0048187394
-0.0043564307
-0.0039269041
-0.0035267763
-0.0031534607
-0.0028058123
-0.0024826427
-0.0021827594
-0.0019051497
-0.0016488529
-0.0014047889
-0.0011767256
-0.00096953953
-0.00078151402
-0.00061069633
-0.00045526116
-0.00031277813
-0.0001828117
-5.9172306e-05
-0.0058366154
-0.0063951401
-0.0069908226
-0.0076269591
-0.0083083266
-0.0090400812
-0.0098311695
-0.01069063
-0.01166877
-0.012540471
-0.013350774
-0.014167174
-0.015010327
-0.015866796
-0.016710362
-0.017486888
-0.018107618
-0.01844879
-0.018364333
-0.017712146
-0.016389253
-0.01436263
-0.011683633
-0.0084799852
-0.0049275301
-0.0012138077
0.0024870169
0.0060240098
0.0092932798
0.012266638
0.015043898
0.017467367
0.019540869
0.021303464
0.022794826
0.024049301
0.025100651
0.025967808
0.026692083
-0.0058355019
-0.0053124255
-0.0048192352
-0.0043586028
-0.003929896
-0.0035300179
-0.0031564883
-0.0028082448
-0.0024842156
-0.0021834662
-0.001905179
-0.0016382058
-0.0013875125
-0.0011596737
-0.00095311647
-0.00076604985
-0.00059656712
-0.00044292949
-0.00030287293
-0.00017599657
-5.6507076e-05
-0.0063892333
-0.0069782606
-0.0076053787
-0.0082743902
-0.008990483
-0.0097589612
-0.010592672
-0.011500159
-0.012544621
-0.01346855
-0.014337139
-0.015219109
-0.016141544
-0.017086347
-0.018018278
-0.018866428
-0.01951916
-0.019828264
-0.019629224
-0.018775674
-0.017178674
-0.014835462
-0.011835877
-0.008342085
-0.0045508191
-0.00066179253
0.0031380496
0.0067090508
0.010003964
0.013141615
0.015900482
0.018268009
0.020284951
0.021999662
0.023450167
0.024671368
0.025695154
0.026545435
0.027253399
-0.0063877272
-0.0058354978
-0.0053132034
-0.0048221969
-0.0043627527
-0.0039344359
-0.0035344584
-0.003160398
-0.0028112724
-0.002486334
-0.0021849085
-0.0018933416
-0.0016179722
-0.0013673069
-0.001139942
-0.00093418336
-0.00074825887
-0.00058034697
-0.00042880429
-0.00029154241
-0.00016820475
-5.34814e-05
-0.0069710509
-0.0075903423
-0.0082486944
-0.0089504501
-0.0097006592
-0.010507458
-0.011384746
-0.012343058
-0.013461555
-0.014444846
-0.015383728
-0.016345595
-0.017364716
-0.018415358
-0.019449255
-0.020373459
-0.021048762
-0.021300576
-0.020948396
-0.019848399
-0.017935009
-0.015244524
-0.011908419
-0.0081195077
-0.0040962489
-6.1576074e-05
0.0038038818
0.0074297155
0.010958714
0.014088835
0.016783088
0.019083103
0.021042647
0.022707158
0.024114782
0.025300794
0.02629539
0.02712748
0.027818298
-0.0069690767
-0.0063877231
-0.0058366033
-0.0053170178
-0.0048276691
-0.0043689313
-0.0039405854
-0.0035401262
-0.0031651998
-0.0028151516
-0.00248959
-0.0021718522
-0.0018698495
-0.0015942813
-0.0013439244
-0.001117196
-0.00091240157
-0.00072783542
-0.0005617691
-0.00041266256
-0.00027861382
-0.00015932706
-5.0058457e-05
-0.0075816246
-0.0082307881
-0.008919921
-0.009653852
-0.010437811
-0.011284038
-0.012206934
-0.013219738
-0.014422492
-0.015474892
-0.016499849
-0.017559785
-0.018696707
-0.019872974
-0.021022093
-0.022022905
-0.022704216
-0.022864529
-0.022312074
-0.020914964
-0.018642399
-0.01557649
-0.011888687
-0.007804679
-0.0035798016
0.00056053954
0.0045190445
0.0084691367
0.012008726
0.015065542
0.017680571
0.019912875
0.021812565
0.023424758
0.024787451
0.025936465
0.026900493
0.02771339
0.028386109
-0.0075790919
-0.0069690728
-0.0063892213
-0.0058413809
-0.0053239253
-0.0048357105
-0.0043772376
-0.003948415
-0.0035470448
-0.0031712244
-0.0028206746
-0.0024752833
-0.0021447753
-0.0018423079
-0.0015668639
-0.0013169722
-0.0010910289
-0.00088739733
-0.00070444475
-0.00054054226
-0.00039426283
-0.00026390266
-0.00014924873
-4.6200149e-05
-0.0082203172
-0.0088986302
-0.0096178282
-0.010382972
-0.011201408
-0.012087389
-0.013058592
-0.014131172
-0.015431704
-0.016566385
-0.017697883
-0.018878558
-0.020158327
-0.021481709
-0.02275747
-0.023829505
-0.024491041
-0.024514961
-0.023706137
-0.0219576
-0.019283825
-0.015814046
-0.011764162
-0.0074137588
-0.0030340741
0.001247942
0.0056455716
0.0096342098
0.013092128
0.016057433
0.01859383
0.020755773
0.022593433
0.024151091
0.025466888
0.026577383
0.027509858
0.028302368
0.028956371
-0.0082171125
-0.0075790881
-0.0069710394
-0.0063951213
-0.0058499055
-0.0053340046
-0.0048464525
-0.0043878292
-0.0039579603
-0.0035556312
-0.0031795243
-0.0028050837
-0.0024442728
-0.0021129841
-0.0018104314
-0.0015352641
-0.0012859688
-0.0010609926
-0.00085876182
-0.00067772181
-0.00051635139
-0.00037334683
-0.00024721508
-0.00013785168
-4.1867887e-05
-0.0088861099
-0.0095925461
-0.010340782
-0.011136237
-0.01198979
-0.012916267
-0.013939538
-0.015079084
-0.016495331
-0.017729896
-0.018994143
-0.020323312
-0.021774857
-0.023267462
-0.024677428
-0.02580696
-0.02641105
-0.026241461
-0.02511267
-0.022956354
-0.019836947
-0.015938347
-0.011550059
-0.0069866318
-0.002405184
0.0024602613
0.0069376342
0.010837065
0.014191002
0.017066315
0.019521152
0.021610503
0.023383752
0.024884716
0.026152022
0.027223102
0.028122274
0.028893653
0.029528626
-0.0088820991
-0.0082171086
-0.0075816134
-0.0069782428
-0.0064055191
-0.0058622818
-0.0053474109
-0.0048601111
-0.0044006187
-0.0039696516
-0.0035672872
-0.0031626149
-0.002769772
-0.0024078008
-0.0020761853
-0.0017736965
-0.001498918
-0.0012503843
-0.0010265972
-0.00082604962
-0.00064727223
-0.00048885982
-0.00034964258
-0.00022835128
-0.00012501776
-3.7024277e-05
-0.0095776031
-0.010310878
-0.011086665
-0.011911918
-0.012800311
-0.013769298
-0.014849918
-0.016066373
-0.017622029
-0.018979804
-0.020409874
-0.021920806
-0.023576469
-0.025259338
-0.026804731
-0.027966329
-0.028460396
-0.028028507
-0.026510458
-0.023884251
-0.020275325
-0.015962132
-0.011294676
-0.0064573928
-0.0011138581
0.0038902551
0.0082723582
0.012055833
0.015308318
0.018090318
0.020461272
0.022475457
0.02418195
0.025624538
0.02684271
0.027871936
0.028736791
0.029486425
0.030102397
-0.0095726266
-0.0088820952
-0.0082203061
-0.0075903251
-0.0069908005
-0.0064205453
-0.0058786885
-0.0053643797