/*--------------------------------*- C++ -*----------------------------------*\
  =========                 |
  \\      /  F ield         | OpenFOAM: The Open Source CFD Toolbox
   \\    /   O peration     | Website:  https://openfoam.org
    \\  /    A nd           | Version:  8
     \\/     M anipulation  |
\*---------------------------------------------------------------------------*/
FoamFile
{
    version     2.0;
    format      ascii;
    class       volScalarField;
    location    "0.966377";
    object      pPrime2Mean;
}
// * * * * * * * * * * * * * * * * * * * * * * * * * * * * * * * * * * * * * //

dimensions      [0 4 -4 0 0 0 0];

internalField   nonuniform List<scalar> 
9200
(
4.2462226e-05
3.9107848e-05
0.00037983259
3.346114e-05
0.00034987644
0.0010617954
2.6660909e-05
0.00029943309
0.00097834629
0.002127249
1.9690956e-05
0.00023866616
0.00083775288
0.0019609003
0.00364409
1.3299618e-05
0.00017635598
0.00066826024
0.0016804504
0.0033609947
0.0057064065
7.9794486e-06
0.00011918877
0.00049430083
0.0013419909
0.0028833
0.0052666811
0.0084333728
3.9906015e-06
7.1572807e-05
0.00033451975
0.00099413787
0.0023060032
0.0045238886
0.0077897584
0.011968727
1.4060752e-06
3.5843747e-05
0.00020125351
0.00067410914
0.001711627
0.0036247051
0.0067011702
0.011065499
0.016480376
1.634025e-07
1.2665659e-05
0.00010108343
0.00040665769
0.0011636134
0.0026969007
0.0053807649
0.0095355749
0.015252522
0.02215971
1.1322178e-07
1.4905218e-06
3.5934178e-05
0.00020512053
0.00070444296
0.0018392056
0.004014828
0.0076756109
0.013169308
0.020532439
0.029220379
1.0598134e-06
9.9094316e-07
4.3403028e-06
7.3553681e-05
0.00035729753
0.001118273
0.0027481685
0.0057458209
0.010630173
0.017766504
0.027109001
0.037896312
2.7919013e-06
9.4220723e-06
2.6448452e-06
9.2169994e-06
0.00012957112
0.00057103289
0.0016794849
0.003949864
0.0079869229
0.014385587
0.023513002
0.035206576
0.048438898
5.1040438e-06
2.489719e-05
2.6006337e-05
4.942562e-06
1.7009136e-05
0.00020991363
0.0008644237
0.0024280605
0.0055170043
0.010852968
0.019103655
0.030615549
0.045067816
0.061113309
7.8099978e-06
4.557945e-05
6.9169206e-05
5.1137848e-05
7.6911429e-06
2.9098541e-05
0.00032282355
0.0012610752
0.0034138908
0.0075370842
0.014477658
0.024966911
0.039300322
0.056950519
0.076193973
1.0749678e-05
6.9801659e-05
0.00012700233
0.00013732852
8.5429011e-05
1.0617623e-05
4.7569597e-05
0.00047944386
0.0017911867
0.0046982602
0.010113874
0.019014411
0.032178135
0.049810689
0.071123626
0.093959278
1.3791577e-05
9.6129401e-05
0.00019483731
0.00025324501
0.00023240717
0.0001296016
1.3338677e-05
7.5500486e-05
0.00069459906
0.0024928728
0.0063555008
0.013368872
0.024636875
0.04095925
0.06240416
0.087862433
0.11468569
1.6832152e-05
0.00012338326
0.00026864914
0.00038951164
0.00043106032
0.00035840852
0.00018423988
1.5359479e-05
0.00011737396
0.0009877864
0.0034137191
0.008474765
0.017442625
0.031538981
0.051549485
0.077348512
0.10744315
0.13864152
1.9793377e-05
0.00015063378
0.00034512198
0.00053802038
0.00066527912
0.00066959359
0.00051989338
0.00024954308
1.611191e-05
0.00017963872
0.001384408
0.0046125594
0.011161857
0.022495804
0.039934421
0.064202741
0.094917197
0.130137
0.16608043
2.2619379e-05
0.00017717992
0.0004216378
0.000692073
0.00092107699
0.0010378445
0.00097986677
0.00072156377
0.00032504248
1.5061871e-05
0.00027146563
0.0019172672
0.0061614634
0.014541042
0.02870992
0.050055444
0.079184191
0.11538414
0.15620399
0.19723518
2.5272761e-05
0.0002025192
0.00049621829
0.00084636664
0.0011868573
0.0014410765
0.0015266157
0.0013742886
0.00096774993
0.00040929969
1.1922075e-05
0.00040574354
0.0026283553
0.0081478928
0.018756739
0.036287533
0.062150907
0.096766158
0.13901799
0.18588663
0.23231164
2.7731018e-05
0.00022631491
0.00056744236
0.00099688307
0.001453407
0.0018608961
0.0021271903
0.0021542393
0.0018660266
0.0012617987
0.00049959375
7.0231923e-06
0.00060036799
0.0035709344
0.010676964
0.023974946
0.045451868
0.076483564
0.11722326
0.16607621
0.21940402
0.27148346
2.9983263e-05
0.00024836404
0.00063435519
0.001140727
0.0017137197
0.0022826269
0.002754
0.003014157
0.0029459827
0.0024682193
0.0016053262
0.00059164543
1.906356e-06
0.00087987071
0.0048119078
0.01387373
0.030384318
0.056445736
0.093326522
0.1408271
0.19679902
0.25694615
0.31488743
3.2027383e-05
0.000268568
0.00069637863
0.0012759453
0.0019627265
0.002695058
0.0033849162
0.0039142204
0.0041417978
0.0039289185
0.0031929407
0.0019973668
0.00067943529
2.1279383e-07
0.0012774325
0.0064344458
0.017885379
0.038196731
0.069529633
0.11295899
0.16784054
0.23140354
0.29866897
0.36261999
3.3867645e-05
0.00028690706
0.00075322907
0.0014013479
0.0021969899
0.0030900381
0.0040029449
0.0048222977
0.0053976075
0.0055543219
0.0051307813
0.0040499201
0.0024334573
0.00075519599
8.953406e-06
0.0018373123
0.0085408191
0.022883235
0.047647193
0.084979023
0.13566136
0.19851178
0.27007825
0.34469029
0.41473477
3.551276e-05
0.0003034189
0.00080484571
0.0015163428
0.0024143983
0.0034620039
0.0045956564
0.0057135616
0.0066680228
0.0072677776
0.0072992649
0.0065784536
0.0050450321
0.0029047144
0.00080968295
4.0243495e-05
0.0026177091
0.011255357
0.029064372
0.058992996
0.10308077
0.16170969
0.2330684
0.31297814
0.39508679
0.47124113
3.697433e-05
0.00031818116
0.00085133021
0.0016207915
0.0026138821
0.0038075042
0.0051545038
0.006569729
0.0079177274
0.0090065209
0.0095951094
0.0094259629
0.0082960698
0.0061785713
0.0033970054
0.00083283755
0.00011358555
0.0036940456
0.014727398
0.036652711
0.072511968
0.12412863
0.19136972
0.2717117
0.36022067
0.44989189
0.53210415
3.8265671e-05
0.00033129758
0.0008928975
0.0017148866
0.0027951643
0.0041247544
0.0056741252
0.0073781224
0.0091205149
0.010721333
0.011933006
0.012455434
0.011983512
0.010302705
0.0074433737
0.0038903325
0.00081497418
0.00025877049
0.0051626169
0.019134077
0.045899383
0.088499692
0.14841802
0.22489085
0.31461155
0.41188245
0.50909495
0.59724557
3.9400903e-05
0.00034288731
0.00092983672
0.0017990528
0.0029585492
0.0044132423
0.0061516835
0.0081306884
0.010258044
0.012375381
0.014245473
0.015552593
0.015928095
0.015018155
0.012609622
0.0088229012
0.0043585737
0.00074864057
0.00051944157
0.007144508
0.024682746
0.05708215
0.10726569
0.17624007
0.26249997
0.36190172
0.46799727
0.57264159
0.66654563
4.0394271e-05
0.00035307689
0.0009624811
0.0018738668
0.0031047492
0.0046733924
0.0065862783
0.0088230604
0.011318504
0.013942619
0.016481538
0.018626172
0.019978687
0.020093341
0.018569932
0.015217218
0.010289398
0.0047697978
0.0006312906
0.00095732293
0.0097896169
0.031612759
0.070503735
0.12912856
0.2078753
0.30439561
0.41367626
0.5285551
0.64043484
0.73984602
4.0978016e-05
0.00036199423
0.00099118507
0.0019399968
0.0032347466
0.0049062906
0.0069784421
0.0094537139
0.012295327
0.015406034
0.018604758
0.021606527
0.024013307
0.025330694
0.025028732
0.02266877
0.018111668
0.01180238
0.0050873562
0.00046889575
0.0016570575
0.013280561
0.040196409
0.086488956
0.15441024
0.24358683
0.35074263
0.46998681
0.593502
0.71233755
0.8169535
4.1438399e-05
0.00036785506
0.0010163076
0.0019981555
0.0033496867
0.0051134626
0.0073297246
0.01002324
0.013186007
0.016755907
0.020590957
0.024443264
0.027937833
0.030568899
0.031730545
0.030804736
0.027329915
0.021261564
0.013307679
0.0052719908
0.00028057476
0.0027315265
0.017836206
0.050738752
0.1053806
0.18342929
0.28361383
0.40166762
0.53084079
0.66274141
0.78817546
0.89764399
4.183929e-05
0.00037164016
0.0010328553
0.002049066
0.0034507957
0.0052967025
0.0076423574
0.010533739
0.013991083
0.017988219
0.022425954
0.027102417
0.031683296
0.035681995
0.038464145
0.039298221
0.037479389
0.032548897
0.024614735
0.01473735
0.0052851785
0.00010426096
0.0043274444
0.023714499
0.06357613
0.12753395
0.21649374
0.32816511
0.45725501
0.59620101
0.73613621
0.86774095
0.98166719
4.2183726e-05
0.00037494607
0.0010427921
0.0020820338
0.0035393216
0.0054579409
0.007918992
0.010988335
0.014713285
0.019103251
0.024103434
0.029563522
0.035202432
0.040576442
0.045062482
0.047875256
0.048146154
0.04509197
0.038296262
0.028095543
0.016010783
0.0050938906
3.3424203e-06
0.0066309434
0.031214299
0.079073133
0.15331023
0.25389356
0.37741311
0.51754451
0.66598612
0.81351165
0.95079735
1.0687513
4.247466e-05
0.00037779524
0.0010515087
0.0021004693
0.0035951683
0.0055991485
0.0081624997
0.011390787
0.015356835
0.020104397
0.025623064
0.031816839
0.038466007
0.045187041
0.051399742
0.056316194
0.058978146
0.058372119
0.053656013
0.044512181
0.031603096
0.017037324
0.0046769054
7.4108684e-05
0.009872783
0.040675789
0.097618008
0.18306891
0.29589285
0.43148893
0.58252946
0.74007222
0.89465903
1.0370836
1.158608
4.271477e-05
0.00038020942
0.0010590507
0.0021167141
0.003623873
0.0056854153
0.0083758226
0.011745198
0.0159269
0.020997203
0.026988882
0.033860849
0.041459237
0.049472406
0.057386694
0.064453148
0.069688964
0.071941124
0.070051097
0.063151509
0.051101475
0.035010743
0.017720771
0.0040327113
0.00045371939
0.014332728
0.052479242
0.11961641
0.21715918
0.34272261
0.49047812
0.65215649
0.81829545
0.97933995
1.1263189
1.250937
4.2906446e-05
0.00038220862
0.0010654661
0.002130824
0.0036492877
0.0057253668
0.0085014893
0.012055791
0.016429166
0.021788589
0.028207974
0.0357001
0.04417852
0.05341043
0.062965229
0.07216491
0.080056271
0.085428626
0.08691626
0.083225629
0.073516863
0.05792942
0.038167424
0.01796604
0.0031889105
0.0013282818
0.020342638
0.067041826
0.14548353
0.2559111
0.3945739
0.55441778
0.72632627
0.90045535
1.0672908
1.2182077
1.3454307
4.3051647e-05
0.00038381045
0.0010707994
0.002142873
0.0036714517
0.0057609388
0.008552543
0.012231684
0.016869524
0.022486257
0.029289409
0.037343413
0.046628592
0.056994079
0.068102723
0.079370536
0.089916603
0.098542401
0.1037766
0.10402869
0.097895201
0.084640923
0.06481898
0.040901388
0.017688151
0.002212884
0.0029405086
0.028287772
0.084812244
0.17563495
0.29962649
0.45159192
0.62329488
0.80489551
0.98631884
1.1582277
1.3124444
1.4417788
4.3151811e-05
0.00038502907
0.0010750885
0.002152928
0.0036904558
0.0057921005
0.0085983295
0.012292137
0.017108773
0.023098232
0.030243404
0.038802431
0.048820128
0.060227674
0.072786706
0.086022485
0.099158083
0.11106358
0.12025098
0.12495704
0.12336421
0.11400489
0.096355657
0.07155017
0.043026712
0.016823609
0.0012232849
0.005596331
0.038605831
0.1062633
0.21047647
0.34857015
0.51387133
0.69704595
0.88767971
1.0756248
1.2518513
1.4087177
1.5396715
4.320786e-05
0.00038587533
0.0010783649
0.0021610477
0.0037063822
0.0058189455
0.008638662
0.012346903
0.017174794
0.023416845
0.031080697
0.040090481
0.050767788
0.063123725
0.077020056
0.092099938
0.10771223
0.12283871
0.13604846
0.14551747
0.14916357
0.1449553
0.13143363
0.10843028
0.077862196
0.04435302
0.015343999
0.00040176227
0.009669771
0.051783433
0.13188237
0.25039317
0.40296184
0.58145286
0.77555801
0.97445703
1.1680888
1.3478513
1.5067148
1.6388038
0.00038635625
4.3207996e-05
0.0010806527
0.0021672809
0.0037193055
0.0058415584
0.0086736128
0.012395513
0.017235539
0.023481757
0.031498275
0.041221695
0.052488669
0.065700327
0.080816867
0.097602687
0.11554576
0.13377026
0.15096023
0.16532617
0.17466031
0.17654377
0.16876564
0.14998282
0.12056756
0.083459049
0.044698654
0.013271425
4.150088e-06
0.015605395
0.068349741
0.16216011
0.29573848
0.46296932
0.65432143
0.85867074
1.0649726
1.2634083
1.4459115
1.6061253
1.7388781
0.0010819676
0.00038635687
4.3152209e-05
0.0021716641
0.003729286
0.0058600156
0.0087032469
0.012437972
0.017290074
0.023543132
0.031551707
0.041762355
0.054001108
0.067979078
0.084199013
0.10254579
0.12265285
0.14380664
0.16484882
0.18410115
0.19935196
0.20796495
0.20718099
0.19467369
0.16936614
0.1324032
0.088019343
0.043907316
0.010695194
0.00037020082
0.023917698
0.088867193
0.19757776
0.34682347
0.52870263
0.73240576
0.94617986
1.1589436
1.3612674
1.5457139
1.7066446
1.8396069
0.0021742206
0.0010819683
0.00038587712
4.3052279e-05
0.003736369
0.0058743796
0.0087276194
0.012474289
0.017338268
0.023599294
0.031605312
0.041789234
0.054694684
0.069983451
0.087193357
0.10695506
0.12904834
0.15293269
0.17763633
0.20165063
0.22286077
0.23856635
0.24566445
0.24107396
0.22245606
0.1892013
0.14350955
0.091210891
0.041868006
0.0077888087
0.0019308738
0.035186904
0.11391951
0.23859365
0.40390702
0.60021023
0.8155796
1.0378413
1.2560642
1.461342
1.6469423
1.8079765
1.940715
0.0037405835
0.0021742207
0.0010806549
0.0003850319
4.2907265e-05
0.0058846961
0.0087467782
0.012504468
0.017380014
0.023649885
0.031656286
0.041822809
0.054674099
0.070867101
0.089829567
0.11086337
0.13476183
0.16116096
0.18929275
0.21785942
0.24492181
0.26784598
0.28337584
0.28791645
0.27811461
0.25177125
0.20900555
0.15340467
0.092710435
0.038537594
0.0048261305
0.0052121784
0.050050893
0.14409731
0.28562946
0.4671874
0.67747678
0.9036643
1.1333761
1.3560112
1.5633039
1.7492861
1.9098361
2.041941
0.0058909957
0.0037405831
0.0021716642
0.0010783682
0.00038381413
4.2715718e-05
0.0087607574
0.012528513
0.01741522
0.023694591
0.031703904
0.041858611
0.054670593
0.070771079
0.090949812
0.11430776
0.13983288
0.16852423
0.19982512
0.23267487
0.26536778
0.29544148
0.31965381
0.3341292
0.33477718
0.31806442
0.2821458
0.22819605
0.16156768
0.092228462
0.033965035
0.0021953497
0.010834687
0.0691932
0.17998196
0.33905694
0.53679552
0.76042289
0.99643265
1.2324759
1.4584492
1.6668257
1.8524435
2.0119514
2.1430391
0.0087695789
0.0058909968
0.0037363679
0.0021672811
0.0010750927
0.00038221293
4.2475673e-05
0.012546429
0.017443804
0.023733152
0.031747524
0.041895342
0.054677303
0.070707683
0.090741961
0.11572327
0.14430709
0.17506913
0.2092679
0.24609349
0.28411249
0.32111371
0.35400746
0.37884856
0.39108945
0.38617182
0.36053127
0.3129639
0.2460968
0.16746119
0.089538566
0.028315813
0.00040932857
0.019508042
0.093327317
0.22212832
0.39918585
0.61279029
0.84890655
1.0936138
1.3348091
1.5630355
1.7715842
1.9561234
2.1140652
2.2437796
0.012558215
0.0087695833
0.0058846994
0.0037292842
0.002161048
0.0010708041
0.00038021412
4.218474e-05
0.017465709
0.023765343
0.031786607
0.041931855
0.054692086
0.0706667
0.090589047
0.11535742
0.14609232
0.18085105
0.21767484
0.25814885
0.30113457
0.34472792
0.38609995
0.42141606
0.44593417
0.4544004
0.4418631
0.40494729
0.34346236
0.2619535
0.17056106
0.084510396
0.021894909
0.00011093131
0.032020063
0.12317786
0.27104733
0.46625358
0.69515615
0.94272637
1.1948991
1.440026
1.6694253
1.8772637
2.0600484
2.215936
2.3439494
0.017480892
0.012558226
0.0087607703
0.0058743852
0.0037193031
0.0021529282
0.0010654709
0.00037780009
4.1840255e-05
0.023790998
0.031820705
0.041967189
0.054713048
0.070644742
0.090476225
0.11507751
0.14551128
0.18310099
0.22511217
0.26890103
0.31646236
0.36623419
0.41572749
0.46136345
0.49843677
0.52131919
0.52404915
0.50141805
0.45054999
0.37273327
0.27495772
0.17039337
0.077144619
0.015166336
0.0020721145
0.049220459
0.15945942
0.32718926
0.540417
0.78380287
1.0416262
1.299948
1.5477654
1.777276
1.9835594
2.1639558
2.3173391
2.4433529
0.023810003
0.017480907
0.012546461
0.0087467989
0.005860024
0.0037063796
0.0021428732
0.0010590552
0.00037495083
4.1439287e-05
0.031849477
0.042000546
0.054738586
0.070638827
0.090398333
0.11486236
0.14505804
0.18223541
0.22794864
0.27842789
0.33016056
0.38564885
0.44279652
0.49839051
0.54795446
0.58577831
0.60527604
0.5998236
0.56417508
0.49636926
0.39973646
0.28428146
0.16657784
0.067607847
0.0087671728
0.0071858654
0.071999539
0.20285407
0.39092852
0.62174695
0.87856762
1.145301
1.4083953
1.6576595
1.886251
2.0901794
2.2675991
2.4180669
2.5418114
0.031872699
0.023810023
0.017465753
0.012528564
0.0087276474
0.00584157
0.0036904529
0.002130824
0.0010515124
0.0003716446
4.0978795e-05
0.042031333
0.054767398
0.070646445
0.090350855
0.11470432
0.144703
0.18155295
0.22671653
0.28200738
0.34231883
0.40303767
0.46730114
0.53233897
0.59405427
0.64690595
0.68404789
0.69789237
0.68126709
0.62921373
0.54122291
0.42332412
0.28912251
0.15887605
0.056264886
0.0035140825
0.016450547
0.10126277
0.2539888
0.46255083
0.71022556
0.97921891
1.2534035
1.5198571
1.7693397
1.9960231
2.1968465
2.3707489
2.5179291
2.6391632
0.042059159
0.031872714
0.023791054
0.017443873
0.012504535
0.0087032814
0.0058189604
0.0036714482
0.0021167136
0.0010427948
0.00036785899
4.0394946e-05
0.054798517
0.070665571
0.090329994
0.1145968
0.1444351
0.18101287
0.22573888
0.28031457
0.34684449
0.41850124
0.48930223
0.56316581
0.63648452
0.70408915
0.75919628
0.79370001
0.7990163
0.76763152
0.69533004
0.58372414
0.44227949
0.28876018
0.14724191
0.04370532
0.0004006385
0.030946782
0.13790237
0.31341407
0.54224338
0.80574634
1.0854624
1.3655517
1.6339377
1.8824408
2.1062777
2.3033004
2.4731934
2.6167527
2.7399184
0.054831311
0.042059168
0.03184952
0.023765431
0.017415309
0.012474368
0.0086736524
0.005792118
0.003649283
0.0021004682
0.0010328568
0.0003619977
3.9401535e-05
0.07069469
0.090332718
0.11453422
0.14424488
0.18059956
0.2249607
0.27896573
0.34458005
0.42423518
0.50890883
0.5909175
0.67514371
0.75694409
0.82986761
0.88569923
0.91497651
0.90819555
0.85783172
0.76102118
0.6223042
0.45537092
0.28261972
0.13187111
0.030761424
0.0005843353
0.051807615
0.18276755
0.38158464
0.63008845
0.90811704
1.1969481
1.4813367
1.750236
1.9966054
2.2167149
2.4092981
2.5747386
2.7185963
2.8462932
0.070732831
0.054831309
0.042031359
0.031820772
0.023733266
0.017380118
0.012438059
0.0086387046
0.005760958
0.0036238664
0.0020820316
0.001016308
0.00035308006
3.8266269e-05
0.090356752
0.11451213
0.14412439
0.18029969
0.2243604
0.27788877
0.34277594
0.4212822
0.5161912
0.61570669
0.71004948
0.80528099
0.89549455
0.97271916
1.0271235
1.0478359
1.0246125
0.95040406
0.82448362
0.65525345
0.4614213
0.27034268
0.11324535
0.018514664
0.0053628831
0.080183304
0.23663485
0.45884374
0.72606058
1.017065
1.3132785
1.6003299
1.8683507
2.1114879
2.3270518
2.5146148
2.6792262
2.825748
2.9554114
0.09040065
0.070732832
0.05479851
0.042000589
0.031786694
0.023694724
0.01733838
0.012395601
0.0085983728
0.0057253865
0.0035951591
0.0020490637
0.00099118484
0.00034289032
3.6974908e-05
0.11452725
0.14406728
0.18010211
0.22391956
0.27705428
0.34133351
0.41893079
0.51242591
0.62497894
0.74130958
0.84906733
0.95575797
1.0539418
1.1338739
1.1839375
1.1918732
1.1470171
1.0434746
0.88362997
0.68078345
0.45939217
0.25185929
0.092167306
0.0082885549
0.016140235
0.11720257
0.30018054
0.54541123
0.83002748
1.1322445
1.4340175
1.7220912
1.987886
2.2267569
2.4370234
2.6230997
2.788986
2.9360795
3.067233
0.11457747
0.090400646
0.070694693
0.054767388
0.041967249
0.031747624
0.023650025
0.017290185
0.012346988
0.0085525848
0.005685434
0.0035393104
0.0019981544
0.00096248056
0.00033130061
3.5513351e-05
0.14406887
0.17999799
0.22362284
0.27643718
0.3402133
0.41705102
0.50943317
0.62027832
0.75314478
0.88839226
1.0105445
1.1288631
1.2340726
1.3143891
1.3562804
1.346231
1.2736629
1.1347421
0.93612955
0.69711196
0.44847952
0.22745755
0.069781817
0.0016265675
0.034383676
0.16393248
0.37395635
0.64137648
0.94175423
1.2532457
1.5586997
1.8461755
2.1084564
2.3420982
2.5507089
2.737083
2.9023857
3.0495369
3.1817088
0.14412618
0.11457747
0.090356738
0.070665572
0.054738576
0.04193193
0.031704007
0.023599431
0.017235641
0.012292215
0.0085015274
0.0055991653
0.0034507842
0.0019399971
0.00092983635
0.00031818452
3.3868304e-05
0.17998082
0.22345811
0.27601672
0.33938192
0.41559055
0.50704357
0.61655397
0.7473978
0.90353374
1.0599036
1.1972457
1.3269567
1.4375889
1.5150576
1.5438571
1.509505
1.4022512
1.2214843
0.97947751
0.7025705
0.42821664
0.19784295
0.047579403
0.00025486572
0.061574138
0.22133941
0.45837007
0.74669596
1.0609105
1.379605
1.686839
1.9721399
2.2296899
2.4620571
2.6703913
2.855204
3.0193617
3.1660496
3.2987799
0.1800464
0.14412619
0.11452725
0.090332693
0.070646443
0.054713039
0.041895425
0.03165638
0.023543254
0.01717488
0.01223175
0.0083758559
0.0054579557
0.0033496748
0.0018738688
0.00089289798
0.00030342298
3.2028173e-05
0.22341652
0.27577657
0.33881173
0.41450538
0.50518903
0.61358715
0.74286537
0.89665755
1.0793151
1.2590685
1.4121052
1.5524184
1.6660214
1.7362961
1.7458197
1.6796493
1.529892
1.3005925
1.0110959
0.69573197
0.39857719
0.16418207
0.027379407
0.0060310204
0.0991526
0.29025332
0.55367183
0.86119539
1.1870801
1.510816
1.8179387
2.0995491
2.3568582
2.5888135
2.7947627
2.9773936
3.1398274
3.2855311
3.4183783
0.22349234
0.18004642
0.14406892
0.11451213
0.090329959
0.070638821
0.054692075
0.041858691
0.031605386
0.023481853
0.017108839
0.012055845
0.008162528
0.0052967151
0.0032347348
0.0017990568
0.00085133241
0.00028691231
2.9984247e-05
0.27570483
0.3384811
0.41375929
0.50381229
0.61129028
0.73926779
0.89126948
1.0712779
1.284
1.489381
1.6581918
1.8075726
1.9206189
1.9780104
1.9606374
1.8538863
1.653089
1.3686444
1.0284684
0.67555323
0.3600703
0.12812414
0.011291327
0.020881131
0.14846584
0.37133747
0.65994652
0.98457637
1.3197734
1.6463409
1.9514985
2.2346925
2.4919741
2.7208823
2.9237521
3.1035542
3.263675
3.4078791
3.5404266
0.27579382
0.22349239
0.17998087
0.14406736
0.11453422
0.09035081
0.070644723
0.054677281
0.041822876
0.031551751
0.023416907
0.01686957
0.011745242
0.0079190143
0.0051134726
0.0031047379
0.0017148934
0.00080485061
0.00026857485
2.7732245e-05
0.33837428
0.41332392
0.50286641
0.60958999
0.73649344
0.88701515
1.0650315
1.2748602
1.5214468
1.7545927
1.9386527
2.0945882
2.2022094
2.2394393
2.1859586
2.0286329
1.7677621
1.4220205
1.029307
0.64152474
0.31381812
0.091795205
0.0016549204
0.046728923
0.21071492
0.46506506
0.77711277
1.1164267
1.4584401
1.785621
2.0951521
2.379348
2.633121
2.858194
3.0572565
3.2335625
3.3907754
3.5329759
3.6648384
0.33848113
0.27579386
0.22341667
0.17999806
0.14412449
0.11459678
0.090398272
0.070666661
0.05467055
0.041789275
0.031498281
0.023098264
0.016429198
0.011390819
0.0076423729
0.004906298
0.0029585395
0.0016208016
0.00075323758
0.00024837284
2.527425e-05
0.41317873
0.50231483
0.60842641
0.73444979
0.88375209
1.0601478
1.2678423
1.511394
1.7958771
2.0586771
2.2566306
2.4153461
2.5110291
2.5189765
2.4184736
2.199454
1.8693171
1.4570699
1.0117475
0.59381609
0.26160626
0.057761644
0.00096152636
0.085421209
0.28690941
0.57170406
0.90492801
1.2562344
1.6024827
1.9379948
2.2503768
2.5308785
2.7802346
3.0006464
3.1951434
3.3672696
3.5209789
3.6606889
3.7915191
0.41331066
0.33848119
0.27570497
0.22345834
0.18010219
0.14424497
0.11470428
0.090476138
0.070707613
0.054674024
0.041762358
0.031080671
0.022486263
0.015926916
0.010988355
0.0073297334
0.0046733976
0.0027951572
0.0015163569
0.00069639146
0.00022632575
2.2621093e-05
0.50213119
0.60775292
0.73306155
0.88136673
1.0564227
1.2623945
1.5038052
1.7853006
2.111864
2.4057732
2.6151496
2.7712687
2.8465183
2.8139762
2.653791
2.361059
1.9527756
1.470326
0.97456207
0.53340391
0.20589821
0.028962171
0.011760952
0.13865444
0.37783023
0.69131074
1.0429997
1.4034024
1.7633284
2.1045881
2.4134883
2.6892301
2.9332208
3.1481042
3.33725
3.5045007
3.6541157
3.7908715
3.9203644
0.50229881
0.41331078
0.33837446
0.27577681
0.2236231
0.18029975
0.14443516
0.11486226
0.090588925
0.070770968
0.054694566
0.041221666
0.030243354
0.021788569
0.015356837
0.010533749
0.0069784451
0.0044132461
0.0026138788
0.0014013664
0.00063437255
0.00020253179
1.9795212e-05
0.60753613
0.73227014
0.87976538
1.0537305
1.2583041
1.4979952
1.7775216
2.101442
2.47431
2.8000979
3.0169593
3.1631056
3.2070829
3.1205514
2.8863405
2.5073598
2.0129743
1.4587696
0.9173759
0.46216722
0.14980696
0.0086104081
0.036559721
0.2079073
0.48400306
0.82373281
1.1907994
1.5718321
1.9417379
2.2803065
2.5844479
2.8543239
3.0919486
3.3003978
3.4833835
3.6450563
3.7899966
3.9233692
4.0512816
0.60775506
0.50229887
0.4131791
0.3384814
0.27601703
0.22391981
0.18059957
0.14470299
0.11507734
0.090741793
0.070866937
0.054000956
0.040090428
0.029289335
0.020997157
0.014713274
0.010023241
0.0065862769
0.0041247576
0.0024143998
0.0012759682
0.00056746366
0.00017719348
1.6833947e-05
0.73203382
0.87887563
1.0519562
1.2553961
1.4937161
1.7716988
2.0941089
2.465129
2.8884001
3.2458183
3.464328
3.5906692
3.5898243
3.4333759
3.1093263
2.6316063
2.0448402
1.4201263
0.84086861
0.38293611
0.097020838
7.3218013e-05
0.077717517
0.29438357
0.6056846
0.96861827
1.3650487
1.761977
2.1308189
2.4651309
2.7632003
3.0260415
3.2562489
3.457323
3.6333215
3.7887126
3.928427
4.0580387
4.1841528
0.73232664
0.60775516
0.50213143
0.41332452
0.3388121
0.27643753
0.22436058
0.1810128
0.14505793
0.11535717
0.090949586
0.069983249
0.052488499
0.03880235
0.028207879
0.020104331
0.013991063
0.0094537097
0.0061516795
0.0038075077
0.0021969967
0.0011407536
0.00049624204
0.00015064718
1.3793157e-05
0.8786461
1.0510111
1.2535337
1.4907563
1.7675389
2.0888422
2.4592382
2.8821163
3.359522
3.7468707
3.9587751
4.0525173
3.9902458
3.7455115
3.3147543
2.7266212
2.0437396
1.3531838
0.746939
0.2994818
0.051684297
0.0067323534
0.13734905
0.3989699
0.74285859
1.1457454
1.566075
1.9647621
2.3305759
2.659038
2.9496484
3.2042225
3.4259138
3.6186414
3.7868127
3.9352427
4.0692184
4.1947055
4.3188554
0.87904503
0.73232684
0.60753646
0.50231529
0.41376005
0.33938233
0.27705464
0.22496075
0.18155277
0.14551104
0.11572292
0.089829298
0.067978859
0.050767599
0.037343303
0.026988769
0.019103169
0.013185979
0.0088230522
0.0056741203
0.0034620083
0.0019627382
0.00099691176
0.00042166182
0.00012339523
1.0750894e-05
1.050833
1.2526117
1.4889522
1.764805
2.0853037
2.4554046
2.8791638
3.3585737
3.8931408
4.3067118
4.500732
4.5455819
4.4019516
4.0482903
3.4935635
2.7851445
2.005893
1.2581015
0.63881027
0.21644076
0.018239235
0.031839067
0.21723935
0.5222072
0.9183758
1.3556955
1.7822897
2.180215
2.5410225
2.86196
3.1436489
3.3886632
3.600696
3.7840813
3.9436052
4.0844167
4.212151
4.3331793
4.4552609
1.0513833
0.87904533
0.73203439
0.60775352
0.50286706
0.41450623
0.34021375
0.27788907
0.22573875
0.18223509
0.14609193
0.11430734
0.087193065
0.065700091
0.04881992
0.035699961
0.025622939
0.017988127
0.012295293
0.0081306776
0.005154499
0.0030900434
0.0017137351
0.00084639517
0.0003451438
9.6138826e-05
7.8107758e-06
1.2525558
1.4881804
1.7632956
2.0832186
2.4532483
2.8780686
3.3607411
3.901027
4.4946151
4.9279889
5.0891239
5.0647533
4.8163627
4.3312862
3.6358922
2.8002958
1.928833
1.1366809
0.52105535
0.13917017
0.0012368334
0.078373317
0.3187749
0.68964552
1.1337526
1.5841761
2.0137365
2.408389
2.7621281
3.0737804
3.3450115
3.5791165
3.7803107
3.9533734
4.1034301
4.2359778
4.3569768
4.4732616
4.5932367
1.2533206
1.0513836
0.87864691
0.73227102
0.60842727
0.50381309
0.41559145
0.34133395
0.27896589
0.2267162
0.18310052
0.1443066
0.11086293
0.084198694
0.063123472
0.046628368
0.033860685
0.024103302
0.016755809
0.011318465
0.0073781096
0.0045956519
0.0026950637
0.0014534242
0.00069209895
0.00026866663
6.980794e-05
5.1044064e-06
1.4883542
1.7628711
2.0823674
2.4524619
2.8784165
3.3642765
3.9114266
4.5162578
5.1689363
5.61211
5.7208678
5.6024331
5.2224861
4.5824186
3.7315026
2.7661452
1.811872
0.99256152
0.3995264
0.073540674
0.0051338563
0.14891639
0.46919473
0.90485445
1.3720825
1.831228
2.2605032
2.6492946
2.9938115
3.2943315
3.553498
3.7752923
3.9644799
4.1262115
4.2660009
4.3896285
4.5034375
4.6147475
4.7326459
1.4894206
1.2533209
1.0508339
0.87887676
0.73306265
0.60959105
0.50518992
0.41705192
0.34277625
0.28031456
0.22794812
0.18085048
0.13983234
0.10695459
0.080816517
0.060227404
0.044178282
0.031816654
0.022425817
0.015405932
0.010258
0.0065697142
0.0040029404
0.0022826321
0.0011868743
0.00053804165
0.00019484928
4.5582709e-05
2.7919706e-06
1.7634325
2.0825859
2.4528023
2.8798745
3.3687452
3.9222828
4.5392536
5.2111459
5.9203702
6.3586971
6.3902877
6.148084
5.6067851
4.788236
3.7703852
2.6783705
1.6565334
0.83130751
0.28118164
0.025678611
0.034090125
0.27039365
0.67584543
1.1488933
1.6333673
2.096957
2.5226408
2.9028924
3.2359376
3.5233938
3.7688229
3.9769133
4.1528602
4.3022863
4.4309766
4.5450574
4.6512661
4.7574279
4.8733491
1.7649198
1.4894209
1.2525567
1.0510125
0.87976666
0.734451
0.61129143
0.50704449
0.41893158
0.34458019
0.28200717
0.22511151
0.17506852
0.13476126
0.10254531
0.07701967
0.05699379
0.041458987
0.029563321
0.020590817
0.013942515
0.0091204679
0.0057135449
0.003384911
0.0018609
0.00092109156
0.00038952691
0.00012700889
2.4898216e-05
1.0597582e-06
2.0837629
2.4540904
2.8821827
3.3738018
3.9331613
4.5611962
5.2527703
5.9924344
6.751975
7.1649109
7.0884622
6.6878232
5.9532167
4.9344309
3.7435434
2.5349592
1.4668925
0.66035745
0.17381031
0.0016826162
0.11123338
0.45645449
0.91913378
1.421666
1.9176977
2.3814446
2.8001538
3.1690885
3.4883163
3.7606969
3.9907206
4.183599
4.3451279
4.4812196
4.5979992
4.7019426
4.8001901
4.9010909
5.0152048
2.0858338
1.7649201
1.488355
1.2526128
1.0519577
0.88136797
0.73649463
0.61358825
0.50943401
0.42128277
0.34684441
0.27842754
0.21767411
0.16852359
0.12904774
0.097602189
0.072786279
0.053410119
0.038465749
0.027102207
0.018604615
0.012375276
0.007917679
0.0048222798
0.0027539936
0.0014410781
0.00066528953
0.00025325413
6.9171629e-05
9.421969e-06
1.1318437e-07
2.4562069
2.8851524
3.3791806
3.9437253
4.5816816
5.2910041
6.0609244
6.8663955
7.6649745
8.0246408
7.8025343
7.2041266
6.243509
5.0066246
3.6439364
2.3368863
1.249768
0.48881107
0.08568648
0.01526453
0.26004799
0.68947758
1.1987785
1.7231937
2.225162
2.6847355
3.0929958
3.4477333
3.7507037
4.0060009
4.2187738
4.3950205
4.5408741
4.662612
4.7666967
4.859954
4.9499336
5.0455236
5.1580704
2.4590819
2.085834
1.7634331
1.4881815
1.2535351
1.0537321
0.88375314
0.73926885
0.61655486
0.51242657
0.42423546
0.34231859
0.26890057
0.20926713
0.16116032
0.12265224
0.092099415
0.068102252
0.049472074
0.035202172
0.024443051
0.016481393
0.010721232
0.0066679771
0.0039142025
0.0021271818
0.0010378428
0.00043106569
0.00013733248
2.6006462e-05
9.9073099e-07
1.6345677e-07
2.8886604
3.3846933
3.9537215
4.6004113
5.3255122
6.1225687
6.9728766
7.8383695
8.6579577
8.9275663
8.5150362
7.6757299
6.4577632
4.9914397
3.4675273
2.0886826
1.0147021
0.32708025
0.012513088
0.10446096
0.46935457
0.96887944
1.5146505
2.0535297
2.5558309
3.0068322
3.4010676
3.7386225
4.0229012
4.25885
4.4526585
4.6107459
4.7396642
4.8460467