/*--------------------------------*- C++ -*----------------------------------*\
  =========                 |
  \\      /  F ield         | OpenFOAM: The Open Source CFD Toolbox
   \\    /   O peration     | Website:  https://openfoam.org
    \\  /    A nd           | Version:  8
     \\/     M anipulation  |
\*---------------------------------------------------------------------------*/
FoamFile
{
    version     2.0;
    format      ascii;
    class       volVectorField;
    location    "0.966377";
    object      U;
}
// * * * * * * * * * * * * * * * * * * * * * * * * * * * * * * * * * * * * * //

dimensions      [0 1 -1 0 0 0 0];

internalField   nonuniform List<vector> 
9200
(
(1.0004958 -7.5505488e-06 1.329973e-25)
(1.0004725 -2.8155901e-05 1.2232275e-23)
(1.0005292 -1.6739021e-05 0)
(1.0004377 -4.2701579e-05 -6.340056e-24)
(1.0005056 -6.4098203e-05 1.2420117e-23)
(1.0005706 -2.4100926e-05 0)
(1.0003907 -5.6511856e-05 -6.5633431e-25)
(1.0004685 -9.7751144e-05 1.6491083e-24)
(1.0005453 -9.141125e-05 0)
(1.0006281 -3.1995011e-05 0)
(1.0003358 -6.7769655e-05 9.6826163e-24)
(1.0004185 -0.00012943347 2.5202732e-24)
(1.0005058 -0.00013904766 6.2566905e-24)
(1.0006007 -0.00012135576 4.7938594e-25)
(1.0006987 -4.0177426e-05 -5.0519782e-26)
(1.000276 -7.6873795e-05 8.3837022e-24)
(1.0003601 -0.00015537074 -2.8223468e-24)
(1.0004526 -0.00018442084 1.7336729e-23)
(1.000558 -0.00018462113 5.5025786e-24)
(1.0006688 -0.00015244338 -2.5251525e-24)
(1.0007828 -4.880293e-05 -2.9989909e-23)
(1.0002137 -8.390846e-05 3.8850098e-24)
(1.0002964 -0.00017637435 1.2637026e-23)
(1.0003902 -0.00022182911 -1.0679875e-23)
(1.0005002 -0.00024484642 -4.3107764e-27)
(1.0006222 -0.00023208302 1.0607956e-23)
(1.00075 -0.00018524293 9.1802184e-24)
(1.0008801 -5.7909207e-05 -1.6694136e-24)
(1.0001511 -8.9038305e-05 -2.221893e-24)
(1.0002302 -0.00019264283 4.2293385e-24)
(1.0003221 -0.00025225042 7.6242739e-24)
(1.0004323 -0.00029461251 -4.5154118e-24)
(1.000559 -0.00030804332 -1.597306e-23)
(1.000699 -0.00028229493 -7.4819775e-24)
(1.0008441 -0.00021989401 -2.376446e-23)
(1.0009903 -6.7517296e-05 4.141551e-23)
(1.0000897 -9.2453039e-05 -1.8426932e-24)
(1.0001634 -0.00020454701 9.3053763e-24)
(1.000251 -0.00027590358 -3.2926691e-24)
(1.0003579 -0.00033522885 5.7158692e-24)
(1.0004845 -0.00037102291 -1.1268543e-23)
(1.0006295 -0.00037511636 -3.1270925e-23)
(1.0007882 -0.00033548667 3.1522587e-23)
(1.0009511 -0.00025648222 -4.4651625e-23)
(1.0011134 -7.7620671e-05 -9.7390678e-23)
(1.0000305 -9.4355804e-05 -9.2950386e-25)
(1.0000978 -0.00021251649 -8.954965e-24)
(1.0001791 -0.00029328599 7.0274832e-25)
(1.0002801 -0.00036696385 1.2627897e-23)
(1.0004026 -0.0004226544 3.1599871e-26)
(1.0005473 -0.00045237385 -2.1378989e-23)
(1.0007117 -0.00044642319 1.0866918e-23)
(1.0008899 -0.00039181512 3.1829206e-23)
(1.0010707 -0.00029499232 1.3265313e-23)
(1.0012491 -8.8189885e-05 3.3635128e-25)
(0.99997441 -9.4961296e-05 4.213314e-25)
(1.0000346 -0.00021701255 -5.5754938e-24)
(1.0001084 -0.00030499325 6.4412404e-24)
(1.0002012 -0.0003904394 -2.1696243e-24)
(1.0003166 -0.00046322763 2.3529962e-23)
(1.0004567 -0.00051604701 -3.6082219e-23)
(1.000621 -0.00053917692 -8.0787137e-24)
(1.0008058 -0.0005222172 6.0071752e-23)
(1.001004 -0.00045129024 -3.8325966e-23)
(1.0012028 -0.00033532259 7.495401e-23)
(1.0013969 -9.9173966e-05 -2.6588374e-23)
(0.99992193 -9.4477998e-05 5.6784415e-25)
(0.99997455 -0.00021851162 8.301684e-24)
(1.00004 -0.00031167773 7.5699636e-25)
(1.0001233 -0.00040640908 0)
(1.0002292 -0.00049347349 -7.0222352e-25)
(1.0003611 -0.00056641884 1.7983707e-23)
(1.0005205 -0.00061609234 -8.0254594e-24)
(1.0007058 -0.0006318075 -2.5452391e-23)
(1.000912 -0.00060256823 4.0045108e-23)
(1.0011306 -0.00051379098 -4.9956737e-23)
(1.0013473 -0.00037728917 -4.3100845e-23)
(1.0015565 -0.00011050217 5.4880305e-24)
(0.9998734 -9.3086959e-05 7.2202051e-26)
(0.99991832 -0.00021747765 -3.4714245e-24)
(0.99997499 -0.000314008 0)
(1.0000479 -0.00041570681 0)
(1.0001425 -0.00051428972 -5.6575815e-24)
(1.0002636 -0.0006043078 2.7697002e-23)
(1.000414 -0.00067740608 -3.1510444e-23)
(1.0005944 -0.00072331651 1.5211066e-23)
(1.000802 -0.00073043261 -9.9736577e-25)
(1.0010304 -0.00068737554 -5.5388282e-25)
(1.0012695 -0.00057906995 8.8570881e-23)
(1.0015036 -0.00042063201 -1.5133594e-22)
(1.0017273 -0.00012208604 2.7632211e-22)
(0.99982889 -9.0955932e-05 -1.6423439e-24)
(0.99986621 -0.00021433601 3.9836246e-25)
(0.99991398 -0.0003126393 -3.928022e-24)
(0.99997592 -0.0004191962 5.8437721e-24)
(1.0000584 -0.00052668274 -7.3787587e-24)
(1.0001666 -0.00063073597 7.9511336e-24)
(1.000305 -0.00072399375 8.002365e-25)
(1.000476 -0.00079688805 -1.7769897e-24)
(1.0006791 -0.0008380221 -9.0617674e-24)
(1.0009102 -0.00083501949 -1.7104854e-23)
(1.0011612 -0.00077637144 1.485728e-23)
(1.0014206 -0.00064676091 4.6979152e-23)
(1.0016715 -0.00046502196 3.7949105e-23)
(1.0019086 -0.0001338218 -8.5165583e-23)
(0.99978838 -8.824247e-05 6.9283063e-24)
(0.99981835 -0.00020947842 1.1229263e-23)
(0.99985734 -0.00030819272 1.9646783e-24)
(0.99990824 -0.0004177315 -9.5878824e-25)
(0.99997784 -0.00053170618 1.1150715e-24)
(1.000072 -0.00064686733 -9.4239737e-24)
(1.0001961 -0.00075697404 -3.3461725e-25)
(1.0003541 -0.00085341572 4.7826696e-25)
(1.0005476 -0.00092533468 1.341595e-23)
(1.000775 -0.00096029267 4.9596973e-24)
(1.0010305 -0.00094533718 -6.5383521e-25)
(1.0013044 -0.00086912682 3.3863258e-23)
(1.0015837 -0.00071638798 -1.0354802e-22)
(1.0018502 -0.00051006966 8.0018131e-23)
(1.0020995 -0.00014559323 -9.088754e-23)
(0.99975176 -8.5084302e-05 3.6667612e-25)
(0.99977476 -0.00020326316 -2.7946142e-24)
(0.99980525 -0.00030124178 4.4252828e-24)
(0.99984527 -0.00041212883 -4.5894424e-24)
(0.99990188 -0.00053041253 5.6913156e-24)
(0.99998119 -0.0006539367 -3.4576515e-24)
(1.0000894 -0.00077764687 2.1764566e-23)
(1.0002317 -0.0008940776 -2.9840699e-24)
(1.0004116 -0.00099323395 -2.2251503e-24)
(1.0006297 -0.0010629891 4.5014657e-23)
(1.0008827 -0.0010899919 -4.5052191e-23)
(1.0011634 -0.0010609594 8.0862987e-23)
(1.0014599 -0.0009650595 2.9646567e-23)
(1.0017582 -0.00078737673 -5.4740762e-24)
(1.0020391 -0.00055533568 -3.5142331e-23)
(1.0022992 -0.00015727475 1.0921523e-22)
(0.99971884 -8.1600238e-05 0)
(0.9997353 -0.00019600708 -6.3258744e-24)
(0.99975773 -0.00029230474 -3.358561e-24)
(0.99978723 -0.00040314685 0)
(0.99983101 -0.00052381626 0)
(0.99989524 -0.00065319202 0)
(0.99998659 -0.00078741405 -3.4080126e-24)
(1.0001113 -0.0009202789 -2.4124565e-24)
(1.0002743 -0.0010429098 -4.4855597e-23)
(1.0004784 -0.0011438855 4.9427949e-25)
(1.0007229 -0.0012098637 -1.8809163e-23)
(1.0010029 -0.0012267627 4.211248e-24)
(1.0013089 -0.0011812702 -1.6305055e-23)
(1.0016276 -0.0010634466 -2.9284548e-23)
(1.0019436 -0.0008590678 1.5038032e-23)
(1.0022374 -0.00060034212 -4.7873196e-23)
(1.0025066 -0.0001687349 0)
(0.99968941 -7.7890862e-05 4.1046599e-24)
(0.99969981 -0.00018798315 4.6051909e-24)
(0.99971467 -0.00028184113 -1.3745642e-23)
(0.99973417 -0.00039147466 -1.1651771e-23)
(0.99976553 -0.00051286733 -1.1044568e-23)
(0.99981482 -0.00064584849 0)
(0.99988893 -0.00078771237 -2.1455358e-23)
(0.99999477 -0.00093356647 1.2210604e-23)
(1.0001386 -0.0010758317 3.080026e-23)
(1.0003249 -0.0012041249 -6.6280045e-23)
(1.0005555 -0.0013055776 2.7797678e-24)
(1.0008282 -0.0013657347 -2.7512847e-23)
(1.0011359 -0.0013700284 5.9072103e-23)
(1.0014673 -0.0013054727 -4.33047e-23)
(1.0018073 -0.0011634409 5.4975114e-23)
(1.0021394 -0.00093073326 -3.0435463e-22)
(1.002444 -0.00064458541 -1.157802e-22)
(1.0027204 -0.00017983996 -1.8354086e-22)
(0.9996632 -7.404032e-05 -1.8157867e-25)
(0.99966804 -0.00017942479 4.2248424e-24)
(0.9996759 -0.00027025141 -4.2361088e-25)
(0.99968601 -0.00037772545 -8.2953312e-24)
(0.99970555 -0.00049843404 1.5736191e-24)
(0.99974031 -0.00063305444 6.5888637e-24)
(0.99979724 -0.0007799583 4.0634689e-23)
(0.99988362 -0.00093555336 5.0061115e-23)
(1.0000066 -0.0010936598 2.3259166e-23)
(1.0001723 -0.001245188 1.6849007e-23)
(1.0003846 -0.0013781599 1.7910809e-23)
(1.0006439 -0.0014782782 -3.9611873e-25)
(1.0009462 -0.0015301379 6.1399963e-23)
(1.0012823 -0.0015189968 -2.488087e-23)
(1.0016386 -0.001432602 -4.4264867e-23)
(1.0019984 -0.0012640882 3.7656429e-23)
(1.0023446 -0.0010015952 -1.2031974e-22)
(1.002658 -0.00068755011 3.1544647e-23)
(1.0029396 -0.00019045756 -2.2255804e-22)
(0.99963996 -7.0117674e-05 -1.4842972e-24)
(0.99963973 -0.0001705271 -3.3992588e-24)
(0.99964116 -0.0002578784 1.8812491e-23)
(0.99964257 -0.00036243491 6.0602726e-24)
(0.999651 -0.00048129344 1.0701798e-25)
(0.99967188 -0.00061586786 3.2952389e-24)
(0.99971202 -0.00076550499 -4.1773622e-24)
(0.99977887 -0.00092785365 2.5604658e-24)
(0.99988015 -0.0010981628 8.8330486e-24)
(1.0000232 -0.0012688049 4.7341579e-23)
(1.0002136 -0.0014290359 1.8379142e-23)
(1.0004546 -0.0015652211 -2.2204299e-23)
(1.0007448 -0.0016617051 -2.0108106e-23)
(1.0010779 -0.0017023658 3.2819751e-24)
(1.0014425 -0.0016726685 -4.2090233e-23)
(1.0018227 -0.001561544 1.0212343e-22)
(1.0022004 -0.0013643498 -1.2501249e-22)
(1.0025584 -0.0010708458 1.8406638e-22)
(1.0028781 -0.00072872255 5.4209862e-23)
(1.0031628 -0.0002004602 2.5650819e-22)
(0.99961942 -6.6179389e-05 -1.2261077e-24)
(0.99961461 -0.00016145223 -6.6400707e-24)
(0.99961019 -0.00024501163 -7.6910279e-24)
(0.9996036 -0.00034606327 -6.5372204e-24)
(0.99960171 -0.0004621279 6.3763646e-24)
(0.9996095 -0.00059524237 6.7633573e-24)
(0.99963354 -0.00074561123 -2.8988205e-23)
(0.99968118 -0.00091202941 -6.8634067e-23)
(0.99976046 -0.0010911423 -2.2376715e-23)
(0.9998795 -0.0012768687 0)
(1.0000456 -0.0014599492 -1.6348189e-23)
(1.0002639 -0.0016278538 -5.4703414e-23)
(1.0005361 -0.0017652687 -1.9051194e-23)
(1.000859 -0.0018553166 8.5823398e-23)
(1.0012239 -0.0018814697 2.205152e-23)
(1.0016167 -0.0018298481 3.481041e-23)
(1.0020194 -0.0016910581 -8.9404e-23)
(1.0024127 -0.0014631267 -1.066664e-22)
(1.0027798 -0.0011376685 1.8489633e-22)
(1.0031032 -0.0007676048 -1.3038003e-23)
(1.0033887 -0.00020972856 2.8882081e-22)
(0.99960133 -6.2269867e-05 -6.8525203e-25)
(0.99959239 -0.00015233089 -5.1729911e-24)
(0.99958269 -0.00023189159 -7.6024819e-24)
(0.9995688 -0.00032899957 8.0818745e-24)
(0.99955743 -0.00044152635 1.1642571e-23)
(0.99955302 -0.00057202081 2.7694118e-24)
(0.99956181 -0.00072142148 0)
(0.99959091 -0.0008895506 1.7332058e-23)
(0.9996484 -0.0010743695 3.0522511e-23)
(0.99974291 -0.0012713504 1.5214575e-23)
(0.99988286 -0.0014728731 -2.3380919e-23)
(1.0000753 -0.0016678612 -2.1309418e-23)
(1.0003246 -0.0018418908 1.1594851e-23)
(1.0006306 -0.0019780004 -1.5860843e-23)
(1.0009879 -0.0020583045 -3.3480866e-23)
(1.0013849 -0.0020662649 4.6269574e-23)
(1.001805 -0.0019891635 -2.2559232e-24)
(1.0022282 -0.0018198031 7.021355e-23)
(1.0026344 -0.001559287 -7.416516e-23)
(1.0030075 -0.0012012592 -1.7596633e-23)
(1.0033319 -0.00080372752 1.4351257e-22)
(1.003616 -0.00021815443 0)
(0.99958545 -5.8424123e-05 -1.7763463e-24)
(0.99957281 -0.00014326953 2.862043e-24)
(0.99955836 -0.00021871555 1.1396727e-24)
(0.99953787 -0.00031156762 1.3638782e-23)
(0.99951783 -0.0004199888 1.1969872e-23)
(0.99950218 -0.00054693491 -5.5635558e-24)
(0.99949671 -0.00069395518 -1.2428166e-23)
(0.99950818 -0.00086176734 -2.2830948e-23)
(0.9995445 -0.0010495335 -8.2575028e-25)
(0.99961449 -0.0012542235 -5.0049596e-24)
(0.99972733 -0.0014699186 1.9481698e-24)
(0.99989159 -0.001687238 4.858019e-23)
(1.0001139 -0.0018931094 3.166138e-24)
(1.0003972 -0.0020711448 -1.2796606e-22)
(1.0007395 -0.0022028352 -5.9771165e-23)
(1.0011325 -0.0022695897 -1.7598634e-23)
(1.0015616 -0.0022553412 3.855614e-23)
(1.0020074 -0.0021490914 -6.1901581e-23)
(1.0024486 -0.0019463662 -2.9731612e-23)
(1.0028646 -0.001651694 8.3564103e-23)
(1.0032405 -0.0012608471 0)
(1.003563 -0.00083666174 -3.7444818e-22)
(1.0038434 -0.00022564317 1.1234235e-23)
(0.99957154 -5.466992e-05 -3.2229318e-24)
(0.99955561 -0.00013435162 2.0774166e-24)
(0.99953691 -0.00020564196 -5.6877629e-24)
(0.99951049 -0.00029403254 -1.3906077e-24)
(0.9994826 -0.00039793306 1.1141546e-23)
(0.99945666 -0.00052060931 0)
(0.999438 -0.00066410364 -2.9083866e-24)
(0.9994329 -0.00082989329 1.6284394e-24)
(0.99944896 -0.0010182042 -2.2581048e-23)
(0.99949494 -0.0012274006 -5.9194163e-23)
(0.99958042 -0.0014532468 -5.7458008e-24)
(0.99971503 -0.0016881922 1.4694448e-23)
(0.99990729 -0.0019208647 -1.6752472e-23)
(1.000163 -0.0021360363 -2.1448312e-23)
(1.0004836 -0.0023153383 1.7704623e-23)
(1.0008643 -0.0024388992 1.0902617e-22)
(1.0012937 -0.0024878248 1.4103468e-22)
(1.0017542 -0.0024470789 -4.2033908e-24)
(1.0022239 -0.0023079871 1.8476195e-22)
(1.0026799 -0.002069296 -2.1528584e-22)
(1.0031021 -0.0017392347 -2.5866225e-22)
(1.0034774 -0.0013157143 3.8672419e-22)
(1.0037952 -0.000866029 -3.5145662e-22)
(1.0040696 -0.00023211571 9.1741284e-24)
(0.99955938 -5.1027457e-05 4.1022837e-24)
(0.99954053 -0.00012564076 3.9424513e-24)
(0.99951806 -0.00019279621 7.0585745e-24)
(0.99948632 -0.00027660789 2.4400435e-23)
(0.99945137 -0.00037570272 -4.0012784e-24)
(0.99941609 -0.00049356873 1.3822991e-23)
(0.99938532 -0.00063263285 -2.7941439e-24)
(0.99936484 -0.00079499845 2.0885039e-23)
(0.99936178 -0.0009818081 6.7500523e-24)
(0.99938463 -0.0011926838 -9.7708898e-24)
(0.99944307 -0.0014249911 -1.9044357e-23)
(0.99954739 -0.0016730456 -4.194561e-23)
(0.99970756 -0.0019274021 -1.4321382e-23)
(0.99993178 -0.0021744664 6.2012701e-24)
(1.0002247 -0.002396729 7.9179667e-23)
(1.0005854 -0.0025738949 -4.7253049e-24)
(1.0010063 -0.0026850155 1.9182512e-23)
(1.0014725 -0.0027114014 1.8622207e-23)
(1.0019631 -0.0026396749 0)
(1.0024539 -0.0024641172 1.2822641e-23)
(1.0029213 -0.0021871374 5.4330371e-25)
(1.0033459 -0.0018208477 8.1743341e-24)
(1.0037169 -0.001365213 -6.5826851e-23)
(1.0040271 -0.00089150967 4.8335279e-22)
(1.0042934 -0.00023750979 3.1977309e-22)
(0.99954878 -4.7509781e-05 1.7208499e-24)
(0.99952736 -0.00011718698 -3.7093959e-24)
(0.99950153 -0.0001802752 -3.3269233e-24)
(0.99946507 -0.00025946231 -2.8678963e-24)
(0.99942379 -0.00035357557 -2.2780452e-23)
(0.99938008 -0.00046624682 -6.3633626e-24)
(0.9993383 -0.00060019019 -2.9822894e-24)
(0.99930365 -0.00075800934 -9.3359244e-25)
(0.99928275 -0.00094161468 -1.6717491e-23)
(0.99928364 -0.0011517304 -1.5574998e-23)
(0.99931583 -0.0013871948 -5.6931028e-24)
(0.99938991 -0.0016441422 6.3785322e-24)
(0.99951685 -0.0019151633 2.3160183e-23)
(0.99970674 -0.0021886391 1.4791865e-23)
(0.9999671 -0.0024485357 2.710543e-23)
(1.0003009 -0.0026749872 -1.3464558e-22)
(1.0007046 -0.0028459179 -3.1408773e-22)
(1.001167 -0.0029397017 -5.4143848e-23)
(1.0016696 -0.002938464 -4.5885627e-23)
(1.0021883 -0.0028311762 -1.1966018e-23)
(1.002697 -0.0026156988 -7.0835549e-23)
(1.0031717 -0.0022984672 -1.6767603e-22)
(1.0035945 -0.0018955489 3.5340151e-22)
(1.0039577 -0.0014087802 -4.4962298e-22)
(1.0042575 -0.00091284872 4.138425e-22)
(1.0045137 -0.00024177978 -1.943771e-23)
(0.99953956 -4.4127146e-05 3.0155107e-26)
(0.99951587 -0.00010902696 -3.524503e-25)
(0.99948709 -0.00016815116 7.0130498e-24)
(0.99944643 -0.00024272615 -9.7891634e-24)
(0.99939952 -0.00033177213 1.0184572e-23)
(0.99934825 -0.00043899604 -1.5488511e-23)
(0.99929651 -0.00056731395 -2.033291e-23)
(0.99924893 -0.00071971461 -3.8266236e-24)
(0.99921153 -0.00089873273 2.4340059e-23)
(0.99919183 -0.0011060317 1.0064093e-23)
(0.99919893 -0.001341763 7.4705417e-24)
(0.99924341 -0.0016037687 1.1517728e-23)
(0.99933677 -0.0018866803 -8.651728e-25)
(0.99949053 -0.0021810581 2.508772e-23)
(0.99971463 -0.0024728227 1.6381046e-23)
(1.0000155 -0.0027433096 -2.2823971e-23)
(1.0003939 -0.0029702929 5.0740412e-24)
(1.000843 -0.0031301708 -2.2435893e-23)
(1.0013478 -0.0032011654 -2.6063058e-24)
(1.0018857 -0.0031669237 -4.9665604e-23)
(1.0024298 -0.0030195081 0)
(1.0029523 -0.0027609335 -5.7604903e-23)
(1.0034299 -0.0024019269 6.5785945e-23)
(1.0038468 -0.001962456 0)
(1.0041985 -0.0014459501 5.6287582e-22)
(1.0044852 -0.0009298579 -2.9579819e-23)
(1.0047294 -0.00024489512 -3.7744995e-22)
(0.99953154 -4.0896131e-05 -1.819364e-25)
(0.99950588 -0.00010118587 -8.1342567e-25)
(0.99947449 -0.0001564762 6.0357734e-24)
(0.99943013 -0.00022649749 1.0245547e-24)
(0.99937822 -0.00031046369 6.3140468e-24)
(0.9993202 -0.00041209771 1.660753e-23)
(0.99925951 -0.0005344443 9.3900713e-25)
(0.99920022 -0.0006807745 1.0877887e-23)
(0.99914771 -0.0008541137 -7.523828e-24)
(0.99910889 -0.0010569028 -7.3711623e-24)
(0.99909232 -0.0012904311 3.0579164e-23)
(0.99910828 -0.0015540923 2.7257025e-23)
(0.99916845 -0.0018444782 1.7954585e-23)
(0.99928522 -0.0021544064 1.3345794e-23)
(0.99947046 -0.0024720776 3.1096252e-23)
(0.99973361 -0.002780665 2.3558689e-23)
(1.0000795 -0.0030587241 1.2516159e-22)
(1.000506 -0.0032817615 1.9359792e-22)
(1.0010026 -0.0034250422 9.0483542e-23)
(1.0015498 -0.0034673037 2.5924039e-22)
(1.0021212 -0.0033944963 3.2830063e-23)
(1.002687 -0.0032025193 -8.6397839e-23)
(1.003219 -0.0028980438 -4.9947589e-24)
(1.0036947 -0.0024962484 0)
(1.0041012 -0.0020208049 0)
(1.0044379 -0.0014763614 -3.621588e-23)
(1.0047091 -0.00094241275 6.5516862e-22)
(1.0049395 -0.00024684043 7.7326684e-22)
(0.99952457 -3.7825448e-05 0)
(0.99949721 -9.3677431e-05 -8.4870824e-25)
(0.99946352 -0.00014528352 -6.2102653e-24)
(0.99941591 -0.00021084763 -7.87177e-24)
(0.99935958 -0.00028978006 -1.4154321e-23)
(0.99929557 -0.0003857717 -6.1412568e-24)
(0.99922687 -0.00050193469 7.8956469e-24)
(0.99915703 -0.00064173243 1.8445569e-23)
(0.99909079 -0.00080856007 -8.1895221e-24)
(0.99903439 -0.0010054824 -5.8737906e-24)
(0.99899574 -0.0012347467 -1.5181067e-24)
(0.99898461 -0.0014971145 1.0908215e-23)
(0.99901252 -0.0017909945 3.1206039e-23)
(0.99909232 -0.002111431 2.4523172e-23)
(0.99923717 -0.0024490787 1.5556427e-23)
(0.99945901 -0.0027894181 3.3687332e-23)
(0.99976636 -0.0031125975 2.3907305e-23)
(1.0001618 -0.0033943207 1.1566147e-23)
(1.0006397 -0.0036080698 6.7143665e-23)
(1.001185 -0.0037285276 1.0608646e-22)
(1.0017738 -0.0037357352 5.3677907e-23)
(1.002376 -0.0036187856 3.0958862e-23)
(1.0029595 -0.0033780975 -2.7441853e-23)
(1.0034958 -0.0030253627 2.0841809e-22)
(1.0039646 -0.0025802921 -2.5691844e-23)
(1.0043565 -0.0020699622 6.2764027e-23)
(1.0046747 -0.0014997595 -6.7744341e-22)
(1.004928 -0.00095044882 4.7556133e-22)
(1.0051433 -0.00024762312 -1.2567012e-21)
(0.99951854 -3.489762e-05 -1.1429451e-24)
(0.99948968 -8.6504814e-05 0)
(0.99945395 -0.0001345866 0)
(0.99940352 -0.00019582304 0)
(0.99934331 -0.00026981654 3.0923317e-24)
(0.999274 -0.00036018588 -9.9796702e-24)
(0.99919818 -0.00047006332 -3.3774136e-24)
(0.99911888 -0.00060302779 -6.6270934e-24)
(0.99904025 -0.00076273726 -1.7278571e-23)
(0.9989678 -0.00095273886 1.9762255e-23)
(0.99890875 -0.0011760629 1.105259e-23)
(0.99887221 -0.0014346422 -4.241628e-24)
(0.99886927 -0.001728517 -1.8851629e-23)
(0.9989128 -0.0020548407 -3.3754503e-23)
(0.99901675 -0.0024067604 -2.6888508e-23)
(0.99919491 -0.0027723576 2.3584997e-23)
(0.99945892 -0.0031340136 4.1009935e-23)
(0.99981572 -0.0034686391 -7.3855951e-23)
(1.0002649 -0.0037491497 -8.7912147e-23)
(1.0007968 -0.0039473701 -1.24891e-22)
(1.0013915 -0.0040381079 -8.370617e-23)
(1.0020204 -0.0040036405 8.3833343e-23)
(1.0026498 -0.0038371379 4.5072023e-23)
(1.0032461 -0.0035441144 8.0061532e-23)
(1.0037815 -0.0031414097 -9.6173092e-23)
(1.0042383 -0.0026531016 1.0755981e-22)
(1.0046111 -0.0021094428 -5.3562743e-22)
(1.0049078 -0.001515993 1.1901955e-22)
(1.0051412 -0.00095397256 -1.9349417e-21)
(1.0053399 -0.00024727857 -8.0537823e-22)
(0.99951298 -3.1796738e-05 -2.717414e-24)
(0.9994832 -7.9743152e-05 -2.4648064e-25)
(0.9994456 -0.0001243926 0)
(0.99939269 -0.0001814441 0)
(0.99932912 -0.0002506363 0)
(0.99925515 -0.00033546469 0)
(0.99917304 -0.00043904419 0)
(0.99908531 -0.00056500885 1.6032183e-24)
(0.99899554 -0.00071718718 -6.4114021e-25)
(0.99890857 -0.00089948169 -1.8458808e-23)
(0.99883084 -0.0011155414 -3.4670643e-24)
(0.99877071 -0.0013682734 1.8307451e-23)
(0.99873863 -0.0016591394 -3.4279827e-24)
(0.99874716 -0.0019872237 -2.7586907e-23)
(0.99881056 -0.0023480897 3.2698333e-24)
(0.99894384 -0.0027325484 1.4043411e-23)
(0.99916107 -0.0031256605 -5.0768553e-23)
(0.99947302 -0.0035063975 -2.2695046e-23)
(0.99988445 -0.0038482712 1.3801597e-22)
(1.0003914 -0.0041214499 7.2202346e-23)
(1.0009795 -0.0042967268 1.2809738e-23)
(1.0016233 -0.0043501479 1.7577175e-22)
(1.0022898 -0.004267275 1.477452e-23)
(1.002942 -0.0040462421 -2.8985437e-23)
(1.0035457 -0.0036980913 1.5498547e-22)
(1.0040744 -0.0032447074 -2.0095979e-22)
(1.0045141 -0.0027139248 -7.1447598e-23)
(1.0048638 -0.0021389239 2.3013417e-22)
(1.005136 -0.0015250088 1.3303299e-23)
(1.0053477 -0.00095308273 1.472741e-21)
(1.0055288 -0.00024584371 5.3394193e-22)
(0.99950775 -2.8490307e-05 2.6290427e-24)
(0.99947747 -7.259165e-05 -3.4498767e-24)
(0.99943841 -0.00011478872 -3.9171593e-24)
(0.9993832 -0.0001677243 -7.4369787e-24)
(0.99931668 -0.00023226816 0)
(0.99923869 -0.00031169176 0)
(0.99915105 -0.00040903758 -2.774682e-24)
(0.99905585 -0.00052794572 -1.0037912e-23)
(0.99895615 -0.00067234273 7.7689885e-24)
(0.9988561 -0.00084637539 -5.2860136e-24)
(0.99876139 -0.0010541615 8.9191012e-24)
(0.99867956 -0.0012993935 6.9225334e-24)
(0.99862029 -0.0015847362 -1.2099315e-23)
(0.99859554 -0.0019109862 1.8605721e-24)
(0.99861945 -0.0022759611 3.9203435e-24)
(0.99870767 -0.0026731892 6.276753e-24)
(0.99887598 -0.00309067 -2.651228e-23)
(0.99913831 -0.0035100744 -1.9241194e-24)
(0.99950421 -0.0039064528 7.5924658e-23)
(0.99997579 -0.0042499119 2.9028969e-22)
(1.0005445 -0.0045087712 1.5127515e-22)
(1.0011901 -0.0046535781 -1.0734243e-22)
(1.0018819 -0.0046621489 1.3228154e-22)
(1.002582 -0.0045241208 2.1698697e-22)
(1.0032516 -0.00424358 1.6721606e-22)
(1.0038566 -0.0038378236 -4.0416478e-23)
(1.004373 -0.0033337125 -3.913656e-23)
(1.0047905 -0.0027621663 -1.9127361e-22)
(1.0051131 -0.0021582371 3.695779e-22)
(1.0053582 -0.0015268624 -7.5603962e-23)
(1.0055468 -0.0009479426 7.8763796e-22)
(1.0057094 -0.00024335767 5.8848872e-23)
(0.99950306 -2.5183957e-05 -1.0732808e-24)
(0.99947229 -6.489977e-05 1.9513799e-24)
(0.99943235 -0.00010460658 3.1142209e-24)
(0.999375 -0.00015480403 2.5237359e-24)
(0.99930573 -0.00021473356 0)
(0.99922422 -0.0002889064 0)
(0.99913182 -0.00038015278 0)
(0.99903007 -0.00049204275 -1.8385054e-24)
(0.99892154 -0.00062854251 -2.4306761e-23)
(0.99880979 -0.00079395512 -1.1641873e-23)
(0.99869976 -0.00099273412 9.8770731e-24)
(0.99859814 -0.0012291819 -2.6910489e-25)
(0.99851373 -0.0015069508 1.6826132e-24)
(0.99845771 -0.0018283114 -3.2373055e-23)
(0.99844377 -0.0021931149 2.113298e-23)
(0.99848764 -0.0025974817 0)
(0.99860613 -0.0030324463 1.1293137e-24)
(0.99881562 -0.0034827604 1.4562192e-23)
(0.99912994 -0.0039259388 1.1098378e-22)
(0.99955686 -0.0043335764 -1.4099967e-23)
(1.000094 -0.0046730355 -1.7650265e-22)
(1.0007276 -0.0049107785 -8.4818269e-23)
(1.0014316 -0.0050172702 -2.0153506e-22)
(1.002169 -0.0049729671 -2.1219396e-22)
(1.002898 -0.0047727878 -2.8039948e-23)
(1.0035782 -0.0044276399 8.7942715e-23)
(1.0041774 -0.0039619366 -5.9540625e-23)
(1.0046755 -0.0034073703 -1.4664824e-23)
(1.0050659 -0.0027973197 4.6405716e-22)
(1.005358 -0.0021673562 2.2987361e-22)
(1.0055737 -0.0015217308 7.1351057e-23)
(1.0057379 -0.00093872963 -2.3178831e-21)
(1.0058814 -0.00023987859 9.0132567e-22)
(0.99949893 -2.1862769e-05 -1.9015864e-24)
(0.99946765 -5.7259123e-05 2.1960568e-24)
(0.9994272 -9.3611814e-05 2.6856151e-24)
(0.99936849 -0.0001410794 9.0033765e-24)
(0.99929626 -0.00019823665 -4.8320503e-25)
(0.99921143 -0.00026713986 -3.774492e-24)
(0.99911489 -0.00035244266 -1.5791937e-23)
(0.9990075 -0.00045744132 7.8007863e-24)
(0.99889122 -0.00058604537 8.3797817e-24)
(0.99876907 -0.0007426432 1.4295201e-23)
(0.99864529 -0.0009319181 2.3799442e-24)
(0.99852574 -0.001158624 -2.5939231e-24)
(0.9984183 -0.0014271967 -6.2830965e-24)
(0.99833324 -0.0017411378 6.9367325e-24)
(0.99828348 -0.0021020774 -7.3769986e-24)
(0.99828443 -0.0025085211 -2.1049907e-23)
(0.99835332 -0.0029544916 1.6785222e-24)
(0.99850826 -0.0034279766 9.3905672e-23)
(0.99876662 -0.0039098244 -2.4565326e-24)
(0.99914084 -0.0043742448 -2.6456446e-23)
(0.99963511 -0.0047891577 -4.4054044e-23)
(1.000243 -0.0051183518 -2.818396e-22)
(1.0009445 -0.0053262778 5.3788613e-23)
(1.0017061 -0.005384842 -7.3590855e-23)
(1.0024856 -0.0052790294 -3.2292451e-22)
(1.0032374 -0.0050102771 -8.2808285e-23)
(1.003921 -0.0045965898 -2.4723787e-23)
(1.0045068 -0.0040693005 -1.5002112e-22)
(1.00498 -0.0034650568 1.1765325e-22)
(1.0053387 -0.0028190554 -7.1681501e-23)
(1.0055972 -0.00216639 2.2777223e-22)
(1.0057817 -0.0015098833 4.8887834e-24)
(1.0059205 -0.00092565052 9.7307887e-22)
(1.0060445 -0.00023547163 -1.7469842e-21)
(0.99949537 -1.8531061e-05 5.9736564e-25)
(0.99946353 -4.9618984e-05 -2.8754285e-24)
(0.99942257 -8.2686592e-05 -2.2496204e-24)
(0.99936342 -0.00012623444 8.1378748e-25)
(0.99928918 -0.00018068056 1.4591689e-24)
(0.99920036 -0.00024668101 8.5852071e-24)
(0.99909985 -0.00032595153 1.9784539e-24)
(0.99898758 -0.00042421177 0)
(0.99886465 -0.00054503309 8.7110573e-24)
(0.99873335 -0.00069276599 2.1569325e-23)
(0.99859732 -0.00087223813 1.7413958e-23)
(0.99846164 -0.0010885277 -7.1618997e-26)
(0.99833327 -0.0013466667 0)
(0.99822147 -0.0016511517 -1.5414267e-23)
(0.99813824 -0.0020051231 2.0012711e-23)
(0.99809827 -0.0024092112 2.8941819e-23)
(0.99811867 -0.0028602655 -2.6457362e-23)
(0.99821869 -0.0033495274 0)
(0.99841822 -0.0038617368 -4.7655125e-23)
(0.99873345 -0.0043744829 -7.0411506e-23)
(0.999175 -0.0048575985 -2.2779585e-22)
(0.99974384 -0.0052737267 -5.7023774e-23)
(1.0004271 -0.005583215 0)
(1.0011972 -0.00575063 -2.8726175e-22)
(1.0020144 -0.0057510933 2.1343671e-23)
(1.0028308 -0.0055754365 3.8245427e-24)
(1.0035986 -0.0052325574 -1.7845771e-22)
(1.004278 -0.0047478029 3.5123439e-23)
(1.0048431 -0.0041586421 2.1182673e-23)
(1.0052849 -0.0035063981 5.6813627e-22)
(1.0056076 -0.0028273774 -1.0153235e-21)
(1.0058296 -0.0021555851 -5.4356259e-22)
(1.0059813 -0.0014916544 0)
(1.0060943 -0.00090895817 -3.8214276e-23)
(1.0061986 -0.00023020807 -5.4123283e-22)
(0.99949238 -1.5189484e-05 1.9458933e-24)
(0.99945997 -4.1977377e-05 -2.7993866e-24)
(0.99941841 -7.173691e-05 5.5781009e-25)
(0.99935883 -0.00011150907 -1.9296011e-24)
(0.99928422 -0.00016165659 -4.8942847e-24)
(0.99919258 -0.00022485541 8.7134032e-24)
(0.99908684 -0.00030107856 1.4238318e-23)
(0.99896985 -0.00039241537 4.0267837e-24)
(0.99884116 -0.00050559849 0)
(0.998702 -0.00064455605 -5.2531593e-24)
(0.99855519 -0.00081410414 -2.3682705e-24)
(0.99840511 -0.0010195428 8.5467655e-24)
(0.99825784 -0.001266348 -3.736762e-24)
(0.99812164 -0.0015597911 9.9659622e-24)
(0.99800743 -0.0019042554 -1.0475333e-23)
(0.99792895 -0.0023022078 5.1108864e-23)
(0.99790274 -0.0027530724 -5.182548e-23)
(0.99794857 -0.003251254 8.7616785e-24)
(0.99808783 -0.0037856041 1.1138445e-22)
(0.99833967 -0.0043376447 -1.1086802e-22)
(0.99872035 -0.0048800535 1.7754888e-22)
(0.99923783 -0.0053761212 -4.7510067e-23)
(0.99988727 -0.0057842383 0)
(1.0006489 -0.006063302 -7.7958636e-23)
(1.0014878 -0.0061792362 1.0772152e-23)
(1.0023569 -0.0061115709 1.6216681e-22)
(1.003204 -0.0058581786 1.459772e-22)
(1.0039799 -0.0054362648 9.1865593e-23)
(1.0046469 -0.0048788621 -1.1253736e-24)
(1.005184 -0.0042288308 0)
(1.0055885 -0.0035311345 -3.9968303e-22)
(1.0058711 -0.0028224847 -1.0910367e-21)
(1.0060544 -0.0021353109 1.9136471e-21)
(1.0061721 -0.0014674206 -6.51674e-22)
(1.0062589 -0.00088893562 6.6638964e-23)
(1.0063434 -0.00022416344 1.9499308e-21)
(0.99949002 -1.1838041e-05 -1.0750179e-24)
(0.99945699 -3.433862e-05 -8.7159249e-25)
(0.9994148 -6.075559e-05 9.0070048e-25)
(0.99935465 -9.6747865e-05 8.5663495e-25)
(0.99927971 -0.00014281174 1.235849e-24)
(0.99918781 -0.00020115793 1.2392902e-24)
(0.99907822 -0.00027446293 -2.0301158e-24)
(0.9989545 -0.0003625948 2.4796523e-24)
(0.99882021 -0.00046782518 3.7224658e-24)
(0.99867426 -0.0005981353 3.5119789e-24)
(0.99851819 -0.00075781257 -2.1789924e-24)
(0.9983554 -0.00095218252 1.4821773e-24)
(0.99819121 -0.001187043 -6.4321371e-24)
(0.99803291 -0.0014682591 2.2257146e-23)
(0.9978903 -0.001801203 -6.6369497e-23)
(0.99777598 -0.0021898832 2.5008477e-23)
(0.99770559 -0.0026359743 1.1202492e-23)
(0.99769891 -0.0031369041 5.0313895e-23)
(0.99777776 -0.0036855186 -5.6963426e-23)
(0.99796359 -0.0042676075 -2.4677723e-23)
(0.99827716 -0.0048594034 1.1292091e-22)
(0.99873277 -0.0054265465 -1.9175109e-22)
(0.99933387 -0.005927522 1.5782425e-22)
(1.0000695 -0.0063176387 0)
(1.0009121 -0.0065550189 3.4674098e-22)
(1.0018183 -0.0066080674 4.0236472e-22)
(1.0027344 -0.0064622159 -1.0633208e-22)
(1.0036045 -0.0061236905 2.9283442e-22)
(1.0043795 -0.0056186698 2.3943946e-23)
(1.0050255 -0.0049879054 -4.240876e-24)
(1.0055273 -0.0042789686 3.8173126e-22)
(1.0058891 -0.0035391502 -7.0465077e-22)
(1.0061281 -0.0028047344 -8.8319414e-24)
(1.0062708 -0.0021060277 1.9721442e-21)
(1.0063537 -0.0014375997 -8.3258778e-23)
(1.0064143 -0.00086588171 -6.2488917e-23)
(1.0064792 -0.00021741588 7.2036196e-22)
(0.99948829 -8.4722943e-06 -7.0129378e-25)
(0.99945461 -2.6704824e-05 -9.7993748e-26)
(0.99941176 -4.9747128e-05 2.4577976e-24)
(0.99935097 -8.1940337e-05 3.2292987e-24)
(0.99927553 -0.00012391554 -1.3877761e-24)
(0.99918343 -0.00017772247 2.400755e-24)
(0.9990737 -0.00024549718 -5.0416059e-24)
(0.99894487 -0.000330566 7.6425352e-24)
(0.99880206 -0.00043244133 0)
(0.99864947 -0.00055361635 -5.8863916e-25)
(0.99848539 -0.00070352289 0)
(0.99831168 -0.00088682351 0)
(0.99813254 -0.0011093922 5.100426e-24)
(0.99795438 -0.001377543 -2.1861348e-25)
(0.99778594 -0.0016974271 -1.2410204e-23)
(0.99763859 -0.0020743057 -2.420079e-23)
(0.99752688 -0.0025117658 8.8358912e-23)
(0.99747003 -0.0030100037 -1.7249148e-23)
(0.99748956 -0.003565585 4.5668079e-23)
(0.99760838 -0.0041686508 3.1047273e-23)
(0.99785059 -0.0047994906 -1.6418345e-22)
(0.99823592 -0.0054274706 4.1203867e-23)
(0.99877572 -0.0060130715 5.3913799e-23)
(0.99946838 -0.0065101947 5.5618927e-23)