/*--------------------------------*- C++ -*----------------------------------*\
  =========                 |
  \\      /  F ield         | OpenFOAM: The Open Source CFD Toolbox
   \\    /   O peration     | Website:  https://openfoam.org
    \\  /    A nd           | Version:  8
     \\/     M anipulation  |
\*---------------------------------------------------------------------------*/
FoamFile
{
    version     2.0;
    format      ascii;
    class       volVectorField;
    location    "0.966377";
    object      U_0;
}
// * * * * * * * * * * * * * * * * * * * * * * * * * * * * * * * * * * * * * //

dimensions      [0 1 -1 0 0 0 0];

internalField   nonuniform List<vector> 
9200
(
(1.0004928 -7.0313566e-06 1.3123165e-25)
(1.0004697 -2.634786e-05 1.2870945e-23)
(1.0005244 -1.5942429e-05 0)
(1.0004351 -3.9918087e-05 -6.6723146e-24)
(1.000501 -6.134861e-05 1.292127e-23)
(1.0005645 -2.3223995e-05 0)
(1.0003884 -5.2799891e-05 -6.9215254e-25)
(1.0004642 -9.3599225e-05 1.6898744e-24)
(1.0005395 -8.8599699e-05 0)
(1.0006203 -3.0976731e-05 0)
(1.0003338 -6.3325811e-05 1.0270331e-23)
(1.0004146 -0.00012389971 2.7447059e-24)
(1.0005004 -0.00013481105 6.5192941e-24)
(1.0005933 -0.00011816218 4.9763541e-25)
(1.0006892 -3.9013308e-05 -5.1697487e-26)
(1.0002744 -7.1836952e-05 8.9196521e-24)
(1.0003568 -0.00014874642 -2.920716e-24)
(1.0004477 -0.00017871054 1.8131891e-23)
(1.000551 -0.00017980928 5.7826396e-24)
(1.0006597 -0.00014887213 -2.5940493e-24)
(1.0007714 -4.7474168e-05 -3.0970217e-23)
(1.0002125 -7.8415602e-05 4.207324e-24)
(1.0002937 -0.0001688605 1.3216766e-23)
(1.000386 -0.00021496118 -1.1176829e-23)
(1.0004939 -0.000238358 -2.1160402e-26)
(1.0006137 -0.00022670567 1.1008801e-23)
(1.0007391 -0.00018123321 9.5198787e-24)
(1.0008666 -5.6400086e-05 -1.6892265e-24)
(1.0001503 -8.3214396e-05 -2.2882801e-24)
(1.0002281 -0.00018444282 4.4913648e-24)
(1.0003186 -0.00024443018 8.0591951e-24)
(1.0004269 -0.00028681985 -4.6442872e-24)
(1.0005513 -0.00030076833 -1.6775391e-23)
(1.0006887 -0.00027625679 -7.8370655e-24)
(1.0008313 -0.00021539895 -2.4473031e-23)
(1.0009746 -6.5812091e-05 4.2570184e-23)
(1.0000892 -8.6410081e-05 -2.1190808e-24)
(1.0001619 -0.00019584706 9.7872537e-24)
(1.0002482 -0.00026734614 -3.4124862e-24)
(1.0003534 -0.00032635716 6.0034385e-24)
(1.0004778 -0.00036227556 -1.157724e-23)
(1.0006202 -0.00036692203 -3.2671953e-23)
(1.000776 -0.00032871442 3.2189721e-23)
(1.0009361 -0.00025145543 -4.5897904e-23)
(1.0010953 -7.5704858e-05 -9.9933582e-23)
(1.0000304 -8.8192352e-05 -8.4312903e-25)
(1.0000969 -0.00020348427 -9.3814579e-24)
(1.0001771 -0.00028418941 7.2478113e-25)
(1.0002765 -0.00035725196 1.3062603e-23)
(1.000397 -0.00041267893 -1.5303409e-26)
(1.0005392 -0.00044250858 -2.1928007e-23)
(1.0007007 -0.00043720256 1.1376642e-23)
(1.0008757 -0.00038423639 3.2907447e-23)
(1.0010534 -0.00028939176 1.3705889e-23)
(1.0012284 -8.6050415e-05 3.6488707e-25)
(0.99997462 -8.8761244e-05 3.7095562e-25)
(1.0000342 -0.0002077957 -5.8088107e-24)
(1.0001071 -0.00029553669 6.8289186e-24)
(1.0001986 -0.00038010738 -2.4033742e-24)
(1.0003121 -0.00045228891 2.4535954e-23)
(1.0004498 -0.00050477591 -3.7735221e-23)
(1.0006113 -0.0005280567 -8.2716621e-24)
(1.0007929 -0.00051186509 6.2068504e-23)
(1.0009876 -0.00044283891 -3.9377556e-23)
(1.001183 -0.00032911116 7.6933044e-23)
(1.0013735 -9.679969e-05 -2.7173642e-23)
(0.99992245 -8.8311152e-05 6.106487e-25)
(0.99997476 -0.00020923675 8.6458831e-24)
(1.0000395 -0.00030201933 6.7531237e-25)
(1.0001217 -0.00039565697 0)
(1.0002259 -0.00048181643 -7.2303165e-25)
(1.0003556 -0.00055403571 1.8536827e-23)
(1.0005122 -0.00060335857 -8.3912739e-24)
(1.0006943 -0.00061929762 -2.6439136e-23)
(1.000897 -0.00059098686 4.0632653e-23)
(1.0011118 -0.00050440803 -5.1335194e-23)
(1.0013248 -0.00037043578 -4.4100962e-23)
(1.0015302 -0.00010788422 5.6034652e-24)
(0.99987421 -8.7011955e-05 8.146293e-26)
(0.99991904 -0.00020825109 -3.6508586e-24)
(0.99997521 -0.00030428447 0)
(1.0000471 -0.00040471228 0)
(1.0001404 -0.0005021384 -5.968778e-24)
(1.0002595 -0.00059108535 2.8763154e-23)
(1.0004074 -0.00066338371 -3.2767987e-23)
(1.0005847 -0.00070895479 1.608109e-23)
(1.0007887 -0.00071640574 -9.6865301e-25)
(1.0010132 -0.00067447585 -5.6104201e-25)
(1.0012481 -0.00056870493 9.0536148e-23)
(1.0014784 -0.00041311256 -1.5427616e-22)
(1.001698 -0.00011921818 2.8164646e-22)
(0.99982996 -8.5021075e-05 -1.780005e-24)
(0.99986741 -0.00020524656 4.2171121e-25)
(0.99991486 -0.00030296655 -4.1891751e-24)
(0.99997612 -0.00040811369 6.1902847e-24)
(1.0000574 -0.00051423742 -7.7875003e-24)
(1.0001639 -0.00061692551 8.2717774e-24)
(1.0003 -0.00070898593 9.4645322e-25)
(1.0004681 -0.00078103183 -1.8272305e-24)
(1.0006677 -0.0008218734 -8.6946999e-24)
(1.0008948 -0.00081935743 -1.6839757e-23)
(1.0011415 -0.00076207512 1.5338034e-23)
(1.0013965 -0.00063537337 4.8367785e-23)
(1.0016432 -0.00045682025 3.8793199e-23)
(1.001876 -0.00013070077 -8.6690326e-23)
(0.99978968 -8.2485911e-05 7.2391896e-24)
(0.99981999 -0.00020059869 1.1877077e-23)
(0.99985885 -0.00029866692 2.0256724e-24)
(0.9999093 -0.00040669248 -1.0044599e-24)
(0.999978 -0.00051914213 1.1635131e-24)
(1.0000707 -0.00063269516 -9.827631e-24)
(1.0001928 -0.0007412625 -2.231462e-25)
(1.0003481 -0.00083640039 3.07185e-25)
(1.0005383 -0.00090745421 1.3769553e-23)
(1.0007618 -0.00094220624 4.999104e-24)
(1.0010129 -0.00092793338 -6.810802e-25)
(1.0012821 -0.00085336847 3.4165529e-23)
(1.0015566 -0.00070394883 -1.0581579e-22)
(1.0018188 -0.00050117819 8.1421724e-23)
(1.0020636 -0.00014221896 -9.2432324e-23)
(0.99975327 -7.9535197e-05 4.9820353e-25)
(0.9997768 -0.00019465052 -3.0509269e-24)
(0.99980733 -0.00029194093 4.695143e-24)
(0.99984713 -0.00040124293 -4.9071238e-24)
(0.9999031 -0.00051788 6.0714009e-24)
(0.99998127 -0.00063960245 -3.9566105e-24)
(1.0000877 -0.00076148751 2.2955296e-23)
(1.0002277 -0.00087621789 -3.0931342e-24)
(1.0004045 -0.00097399036 -2.4538722e-24)
(1.0006188 -0.0010429002 4.6112639e-23)
(1.0008675 -0.001069828 -4.7817496e-23)
(1.0011433 -0.0010417215 8.2700465e-23)
(1.0014348 -0.00094778855 3.0417564e-23)
(1.001728 -0.00077386959 -5.244167e-24)
(1.0020044 -0.00054575628 -3.5565413e-23)
(1.0022598 -0.00015365056 1.1094019e-22)
(0.99972054 -7.6280199e-05 0)
(0.99973771 -0.0001877055 -6.7380271e-24)
(0.99976033 -0.00028329047 -3.4604709e-24)
(0.99978984 -0.00039250341 0)
(0.99983323 -0.00051144134 0)
(0.99989661 -0.00063886818 0)
(0.99998655 -0.00077103465 -3.5479779e-24)
(1.0001092 -0.00090186351 -2.131558e-24)
(1.0002694 -0.0010226528 -4.6421504e-23)
(1.00047 -0.0011221961 1.0628036e-24)
(1.0007102 -0.0011873915 -1.9230669e-23)
(1.0009854 -0.0012043956 4.7565712e-24)
(1.0012862 -0.0011601226 -1.6568348e-23)
(1.0015995 -0.0010446291 -3.0161682e-23)
(1.0019101 -0.00084449003 1.4913698e-23)
(1.0021992 -0.00059008638 -4.863122e-23)
(1.0024636 -0.00016486763 0)
(0.99969127 -7.2814983e-05 4.4222614e-24)
(0.99970254 -0.0001800249 5.0561971e-24)
(0.99971776 -0.00027316055 -1.4679325e-23)
(0.99973747 -0.00038114455 -1.2306994e-23)
(0.99976869 -0.00050075347 -1.1725441e-23)
(0.99981741 -0.00063168102 0)
(0.99989043 -0.00077131157 -2.2584369e-23)
(0.99999454 -0.00091485495 1.2722601e-23)
(1.0001359 -0.0010548855 3.2710425e-23)
(1.000319 -0.0011812209 -6.8477607e-23)
(1.0005456 -0.0012812311 2.4666676e-24)
(1.0008135 -0.0013407167 -2.8075209e-23)
(1.0011159 -0.0013453494 6.1136003e-23)
(1.0014417 -0.0012823593 -4.57297e-23)
(1.0017759 -0.0011430612 5.4887821e-23)
(1.0021025 -0.0009150967 -3.097604e-22)
(1.0024023 -0.00063367492 -1.1764444e-22)
(1.0026738 -0.00017573994 -1.8608904e-22)
(0.9996652 -6.9218373e-05 -2.0548164e-25)
(0.99967106 -0.0001718323 4.5316071e-24)
(0.99967941 -0.0002619389 -3.8079218e-25)
(0.99968994 -0.00036776317 -8.8640622e-24)
(0.99970956 -0.00048666398 1.6693615e-24)
(0.99974403 -0.00061916409 6.700431e-24)
(0.99980019 -0.00076370573 4.241401e-23)
(0.99988521 -0.00091677439 5.2686175e-23)
(1.0000061 -0.0010723194 2.4363697e-23)
(1.0001689 -0.0012214315 1.6805591e-23)
(1.0003775 -0.0013523612 1.8471448e-23)
(1.0006323 -0.0014510725 -1.4934124e-24)
(1.0009293 -0.0015024273 6.3073168e-23)
(1.0012596 -0.0014919181 -2.5165605e-23)
(1.0016099 -0.0014074882 -4.460434e-23)
(1.0019636 -0.0012421507 3.8524782e-23)
(1.0023041 -0.00098492667 -1.2232934e-22)
(1.0026125 -0.00067601639 3.1890221e-23)
(1.0028893 -0.00018613855 -2.255466e-22)
(0.99964209 -6.5554867e-05 -1.6744975e-24)
(0.99964302 -0.00016331434 -3.7002715e-24)
(0.99964506 -0.00024995743 2.0373272e-23)
(0.99964707 -0.00035288065 6.4153221e-24)
(0.9996558 -0.00046993137 4.9423609e-29)
(0.99967665 -0.00060235212 3.3700092e-24)
(0.99971633 -0.00074954236 -4.4158003e-24)
(0.99978217 -0.00090920453 2.2326309e-24)
(0.99988176 -0.0010766908 9.2939937e-24)
(1.0000223 -0.0012445294 5.0147674e-23)
(1.0002094 -0.0014021867 1.7645886e-23)
(1.0004461 -0.0015362853 -2.2607811e-23)
(1.0007312 -0.0016314514 -2.0001198e-23)
(1.0010585 -0.0016718362 3.2915144e-24)
(1.0014168 -0.0016431257 -4.2593835e-23)
(1.0017907 -0.0015344188 1.050851e-22)
(1.0021621 -0.0013408796 -1.2639329e-22)
(1.0025142 -0.0010531873 1.8759886e-22)
(1.0028289 -0.00071660678 5.5009557e-23)
(1.0031087 -0.00019593921 2.5972474e-22)
(0.99962167 -6.1877443e-05 -1.2984093e-24)
(0.99961814 -0.00015462635 -7.1534563e-24)
(0.99961443 -0.00023749647 -8.0625634e-24)
(0.99960861 -0.000336945 -7.0320921e-24)
(0.99960721 -0.00045122174 6.6551169e-24)
(0.99961523 -0.00058217767 7.257094e-24)
(0.99963911 -0.00073005415 -3.0786283e-23)
(0.99968609 -0.00089367674 -7.2615546e-23)
(0.99976408 -0.001069768 -2.2676697e-23)
(0.99988107 -0.0012523747 0)
(1.0000442 -0.0014324242 -1.6000966e-23)
(1.0002587 -0.0015976296 -5.6628162e-23)
(1.000526 -0.0017329624 -2.0920329e-23)
(1.0008433 -0.0018218438 8.8531678e-23)
(1.0012018 -0.0018480182 2.1678938e-23)
(1.0015878 -0.0017978034 3.6892738e-23)
(1.0019838 -0.0016619359 -9.0107843e-23)
(1.0023707 -0.0014381706 -1.082113e-22)
(1.0027318 -0.0011190766 1.8743983e-22)
(1.0030502 -0.00075495722 -1.3098106e-23)
(1.0033309 -0.00020502558 2.9227908e-22)
(0.99960368 -5.8227396e-05 -5.4867632e-25)
(0.99959613 -0.00014589316 -5.5873474e-24)
(0.99958724 -0.00022478884 -8.2938312e-24)
(0.99957427 -0.00032033493 8.8609157e-24)
(0.99956357 -0.00043110993 1.2499605e-23)
(0.99955962 -0.00055946494 2.8179742e-24)
(0.99956854 -0.00070636162 0)
(0.99959733 -0.00087163176 1.7746259e-23)
(0.99965393 -0.0010532886 3.1944483e-23)
(0.99974682 -0.0012469036 1.7282433e-23)
(0.99988428 -0.0014450147 -2.3947347e-23)
(1.0000733 -0.0016367667 -2.2304257e-23)
(1.0003181 -0.0018080128 1.1981082e-23)
(1.0006187 -0.0019421036 -1.5623004e-23)
(1.0009697 -0.0020214634 -3.5022778e-23)
(1.0013598 -0.0020298166 4.7848069e-23)
(1.0017727 -0.0019546081 -2.520294e-24)
(1.0021889 -0.0017887252 7.2374588e-23)
(1.0025886 -0.0015329132 -7.4260387e-23)
(1.0029556 -0.0011818048 -1.7574292e-23)
(1.0032751 -0.00079060666 1.4520606e-22)
(1.0035545 -0.0002132921 0)
(0.99958787 -5.4637275e-05 -1.8100815e-24)
(0.99957674 -0.00013721675 3.0860552e-24)
(0.99956319 -0.00021202554 1.190905e-24)
(0.99954375 -0.0003033657 1.4691546e-23)
(0.99952455 -0.00041008403 1.2761323e-23)
(0.99950957 -0.00053492944 -6.0276398e-24)
(0.9995045 -0.0006794628 -1.2791605e-23)
(0.99951598 -0.0008443926 -2.4666608e-23)
(0.99955179 -0.0010289092 -1.2116776e-24)
(0.99962061 -0.0012300534 -5.2917326e-24)
(0.99973145 -0.0014420333 2.0413986e-24)
(0.99989274 -0.0016556608 5.0988621e-23)
(1.000111 -0.0018581224 3.1005365e-24)
(1.0003892 -0.0020333422 -1.3094847e-22)
(1.0007254 -0.0021631465 -5.9443778e-23)
(1.0011115 -0.0022292584 -1.6187808e-23)
(1.0015332 -0.0022158524 3.8922106e-23)
(1.0019715 -0.0021120476 -6.5388682e-23)
(1.0024054 -0.0019134013 -3.0101387e-23)
(1.0028147 -0.0016239918 8.5175637e-23)
(1.0031846 -0.0012406144 0)
(1.0035024 -0.00082313335 -3.7864986e-22)
(1.0037781 -0.00022064637 1.1419096e-23)
(0.99957403 -5.11331e-05 -3.7760906e-24)
(0.9995597 -0.00012867703 2.4283995e-24)
(0.99954198 -0.00019936 -6.3062912e-24)
(0.99951673 -0.0002862955 -1.6479255e-24)
(0.99948983 -0.00038855191 1.2203124e-23)
(0.99946476 -0.00050918195 0)
(0.99944674 -0.00065023024 -3.0048132e-24)
(0.99944196 -0.00081314839 1.3096434e-24)
(0.99945789 -0.00099816945 -2.4246009e-23)
(0.99950314 -0.001203701 -6.248457e-23)
(0.99958711 -0.0014256026 -5.0811256e-24)
(0.99971927 -0.0016564839 1.6125259e-23)
(0.99990801 -0.0018852045 -1.8570051e-23)
(1.0001591 -0.0020968353 -2.0615586e-23)
(1.0004738 -0.0022733536 1.5665684e-23)
(1.0008477 -0.0023952413 1.0765715e-22)
(1.0012696 -0.0024439127 1.4415958e-22)
(1.0017222 -0.0024045409 -5.4412093e-24)
(1.0021841 -0.0022685102 1.9020088e-22)
(1.0026327 -0.0020345404 -2.1802141e-22)
(1.0030482 -0.0017103138 -2.6275602e-22)
(1.0034176 -0.0012947991 3.91045e-22)
(1.0037307 -0.00085216481 -3.5503797e-22)
(1.0040007 -0.00022701108 9.3224512e-24)
(0.99956194 -4.7733384e-05 4.2985155e-24)
(0.99954477 -0.00012033459 4.2940543e-24)
(0.99952334 -0.0001869137 7.439152e-24)
(0.99949288 -0.00026933228 2.6551599e-23)
(0.99945905 -0.00036684896 -4.5327571e-24)
(0.99942482 -0.00048273552 1.522866e-23)
(0.99939492 -0.00061941368 -2.8966755e-24)
(0.99937505 -0.00077894733 2.2894217e-23)
(0.99937221 -0.00096246753 6.7360773e-24)
(0.99939476 -0.0011696144 -1.0699549e-23)
(0.99945218 -0.0013978178 -1.9218761e-23)
(0.99955459 -0.0016415186 -4.5063703e-23)
(0.99971179 -0.0018914698 -1.3985583e-23)
(0.99993186 -0.0021343526 6.5040546e-24)
(1.0002194 -0.0023529985 7.9978676e-23)
(1.0005736 -0.0025274893 -5.2308318e-24)
(1.0009869 -0.0026372405 1.975794e-23)
(1.001445 -0.0026638541 1.6847901e-23)
(1.0019273 -0.0025941156 0)
(1.0024099 -0.0024222963 1.2553992e-23)
(1.0028698 -0.0021507144 4.3157365e-25)
(1.0032878 -0.0017908361 8.4758599e-24)
(1.0036531 -0.0013437212 -6.6088769e-23)
(1.0039588 -0.00087738599 4.8830195e-22)
(1.004221 -0.00023232534 3.2292809e-22)
(0.9995514 -4.4451274e-05 2.0971765e-24)
(0.99953173 -0.00011223768 -3.9469453e-24)
(0.999507 -0.00017478053 -3.5926319e-24)
(0.99947191 -0.00025264031 -3.1203401e-24)
(0.99943187 -0.00034524638 -2.4943782e-23)
(0.99938937 -0.00045601416 -6.7457956e-24)
(0.99934867 -0.00058764674 -3.1013326e-24)
(0.9993149 -0.00074269692 -1.0488252e-24)
(0.99929455 -0.00092304776 -1.8469498e-23)
(0.99929554 -0.0011294191 -1.6076375e-23)
(0.9993272 -0.0013606841 -6.7642822e-24)
(0.99939992 -0.0016130674 6.8165469e-24)
(0.99952447 -0.0018793207 2.4947231e-23)
(0.9997108 -0.0021480675 1.4974766e-23)
(0.99996631 -0.0024035959 2.8390807e-23)
(1.000294 -0.0026264233 -1.3609577e-22)
(1.0006903 -0.0027948773 -3.1869072e-22)
(1.0011445 -0.0028876967 -5.1882648e-23)
(1.0016384 -0.0028872673 -4.186094e-23)
(1.0021484 -0.002782663 -1.2055561e-23)
(1.0026487 -0.0025716567 -7.6216754e-23)
(1.0031158 -0.0022605253 -1.6988042e-22)
(1.0035322 -0.0018645914 3.5800097e-22)
(1.0038899 -0.0013868261 -4.5449374e-22)
(1.0041855 -0.00089854514 4.1788153e-22)
(1.0044378 -0.00023654474 -1.9583285e-23)
(0.99954222 -4.1293303e-05 1.6824442e-26)
(0.99952036 -0.00010442168 -4.1545209e-25)
(0.99949272 -0.00016303052 7.749918e-24)
(0.99945352 -0.00023634656 -1.0871729e-23)
(0.99940795 -0.00032395943 1.1528177e-23)
(0.99935804 -0.00042936249 -1.6938217e-23)
(0.99930757 -0.00055545627 -2.1850561e-23)
(0.99926111 -0.00070516956 -4.8078558e-24)
(0.99922458 -0.00088099671 2.6939015e-23)
(0.99920536 -0.0010845772 1.125938e-23)
(0.99921239 -0.0013160707 7.7447292e-24)
(0.99925604 -0.0015733758 1.4508155e-23)
(0.99934763 -0.0018512459 -3.5391165e-24)
(0.99949846 -0.0021404448 2.7097484e-23)
(0.99971831 -0.0024271846 1.6415135e-23)
(1.0000136 -0.0026931735 -2.3863868e-23)
(1.000385 -0.0029166095 7.1744536e-24)
(1.000826 -0.003074314 -2.5136221e-23)
(1.0013218 -0.0031448603 -4.7172276e-25)
(1.0018505 -0.0031121098 -5.0517679e-23)
(1.0023854 -0.0029681524 0)
(1.0028994 -0.002714829 -6.0151173e-23)
(1.0033696 -0.0023626391 6.5951001e-23)
(1.0037803 -0.0019307112 0)
(1.0041267 -0.0014236538 5.6935011e-22)
(1.0044095 -0.00091545647 -2.9733042e-23)
(1.0046501 -0.00023963969 -3.8083262e-22)
(0.99953423 -3.8276648e-05 -2.5708815e-25)
(0.99951048 -9.6910912e-05 -8.5017322e-25)
(0.99948026 -0.0001517142 6.6668975e-24)
(0.99943744 -0.00022054655 1.0243935e-24)
(0.99938696 -0.00030315535 6.8148204e-24)
(0.99933043 -0.00040305556 1.8205274e-23)
(0.99927118 -0.00052327298 1.0326581e-24)
(0.99921323 -0.00066701179 1.2187656e-23)
(0.99916188 -0.00083724657 -8.0341735e-24)
(0.99912389 -0.0010363779 -8.947727e-24)
(0.99910769 -0.0012656797 3.3472448e-23)
(0.99912335 -0.0015245705 2.9126589e-23)
(0.99918235 -0.0018097257 2.0055022e-23)
(0.99929686 -0.0021141235 1.3380617e-23)
(0.99947852 -0.0024262164 3.3670941e-23)
(0.99973666 -0.0027295255 2.3516917e-23)
(1.0000761 -0.0030030328 1.3056892e-22)
(1.0004947 -0.0032227049 1.9034242e-22)
(1.0009823 -0.0033642355 8.9614629e-23)
(1.0015198 -0.0034066792 2.6249309e-22)
(1.0020815 -0.0033361425 3.0267599e-23)
(1.002638 -0.0031484712 -8.6878864e-23)
(1.0031614 -0.0028500702 -4.8280074e-24)
(1.0036298 -0.0024558122 0)
(1.0040305 -0.001988444 0)
(1.0043623 -0.0014538468 -3.6736717e-23)
(1.0046298 -0.00092799753 6.6102586e-22)
(1.004857 -0.00024159485 7.7982911e-22)
(0.99952729 -3.5411841e-05 0)
(0.99950189 -8.9717499e-05 -9.2386593e-25)
(0.99946942 -0.00014086397 -6.8382498e-24)
(0.99942342 -0.00020530974 -8.5356345e-24)
(0.9993686 -0.00028296087 -1.5535839e-23)
(0.99930618 -0.00037730837 -6.54589e-24)
(0.99923908 -0.00049144277 8.8484208e-24)
(0.99917077 -0.00062875572 2.062841e-23)
(0.99910595 -0.00079258351 -1.0153677e-23)
(0.99905072 -0.00098593711 -5.791987e-24)
(0.99901285 -0.0012110283 -1.7214299e-24)
(0.99900193 -0.0014686152 1.0965678e-23)
(0.99902927 -0.0017571533 3.6607606e-23)
(0.99910747 -0.002071803 2.4700095e-23)
(0.99924947 -0.002403426 1.5368666e-23)
(0.99946699 -0.0027378156 3.6548803e-23)
(0.99976844 -0.0030555311 2.3677231e-23)
(1.0001564 -0.0033327533 1.4058728e-23)
(1.0006255 -0.0035434414 6.2494151e-23)
(1.001161 -0.0036626992 1.096711e-22)
(1.0017396 -0.0036708325 5.1736457e-23)
(1.0023315 -0.0035570115 2.9480775e-23)
(1.0029055 -0.0033215228 -2.756185e-23)
(1.0034334 -0.0029757241 2.1604545e-22)
(1.0038952 -0.0025389216 -2.4114147e-23)
(1.0042815 -0.0020371669 6.2774122e-23)
(1.0045953 -0.0014771535 -6.845648e-22)
(1.0048454 -0.0009361043 4.7962044e-22)
(1.0050577 -0.00024241596 -1.2670022e-21)
(0.99952131 -3.2674558e-05 -1.4688729e-24)
(0.99949444 -8.2846794e-05 0)
(0.99945997 -0.00013049299 0)
(0.99941119 -0.00019068172 0)
(0.99935257 -0.00026346909 3.4219646e-24)
(0.99928495 -0.000352285 -1.118926e-23)
(0.99921086 -0.00046023785 -3.5197629e-24)
(0.99913328 -0.0005908315 -6.9456064e-24)
(0.99905629 -0.00074765926 -2.0343662e-23)
(0.99898532 -0.00093420379 2.3429214e-23)
(0.99892744 -0.0011534431 1.0287274e-23)
(0.99889159 -0.0014072821 -3.8703782e-24)
(0.99888865 -0.0016957733 -2.1110102e-23)
(0.99893125 -0.0020161437 -3.4159079e-23)
(0.99903308 -0.0023616998 -3.1556981e-23)
(0.99920769 -0.0027207937 2.3331472e-23)
(0.99946654 -0.003076189 4.4618061e-23)
(0.9998165 -0.0034052625 -7.3139181e-23)
(1.0002573 -0.003681455 -9.1471121e-23)
(1.0007795 -0.0038770742 -1.2591098e-22)
(1.0013636 -0.0039673318 -8.160103e-23)
(1.0019816 -0.0039346719 8.4597802e-23)
(1.0026004 -0.0037722077 4.0551438e-23)
(1.003187 -0.003485268 8.3887946e-23)
(1.0037141 -0.0030903175 -9.6694438e-23)
(1.0041642 -0.002611011 1.0942739e-22)
(1.004532 -0.0020763991 -5.4204622e-22)
(1.0048247 -0.0014934244 1.1869052e-22)
(1.0050552 -0.00093977928 -1.951068e-21)
(1.0052514 -0.00024213616 -8.1165422e-22)
(0.99951578 -2.9770884e-05 -2.9154293e-24)
(0.99948801 -7.6374078e-05 -4.0633244e-25)
(0.99945172 -0.0001206073 0)
(0.99940052 -0.00017668256 0)
(0.99933859 -0.00024474212 0)
(0.9992664 -0.00032810714 0)
(0.99918613 -0.00042986757 0)
(0.99910028 -0.0005535801 1.6845247e-24)
(0.99901237 -0.00070300455 2.1207508e-25)
(0.99892715 -0.00088197096 -2.2357587e-23)
(0.99885094 -0.0010940625 -3.6037801e-24)
(0.99879195 -0.0013421374 1.7551568e-23)
(0.99876043 -0.0016276397 5.1122424e-25)
(0.99876868 -0.0019496864 -3.1516343e-23)
(0.99883071 -0.0023039537 3.7174506e-24)
(0.99896124 -0.002681477 1.2320407e-23)
(0.99917412 -0.0030676611 -4.9076709e-23)
(0.99948001 -0.0034419148 -2.4765056e-23)
(0.99988361 -0.0037782994 1.384935e-22)
(1.0003812 -0.0040475825 7.1917731e-23)
(1.0009585 -0.0042209569 1.2544433e-23)
(1.001591 -0.004274754 1.7560613e-22)
(1.0022459 -0.0041946603 1.4883814e-23)
(1.0028873 -0.0039786421 -2.7202258e-23)
(1.0034813 -0.0036374211 1.550725e-22)
(1.004002 -0.0031924777 -2.0909092e-22)
(1.0044354 -0.0026713248 -7.3534695e-23)
(1.0047805 -0.002105816 2.330503e-22)
(1.0050493 -0.0015026068 1.3265971e-23)
(1.0052586 -0.00093911349 1.4846462e-21)
(1.0054375 -0.00024079202 5.3773556e-22)
(0.99951058 -2.6673088e-05 2.7974262e-24)
(0.99948231 -6.9520395e-05 -3.623533e-24)
(0.99944459 -0.00011129437 -4.3433252e-24)
(0.99939114 -0.00016332385 -8.2657443e-24)
(0.99932635 -0.00022680848 0)
(0.99925021 -0.00030485716 0)
(0.99916451 -0.00040048873 -2.9241493e-24)
(0.99907133 -0.00051726587 -1.1647075e-23)
(0.99897367 -0.00065904329 1.0140355e-23)
(0.99887562 -0.00082988949 -8.3293682e-24)
(0.99878276 -0.001033846 9.3145627e-24)
(0.99870248 -0.0012745393 9.9623369e-24)
(0.99864428 -0.0015545902 -1.3347676e-23)
(0.99861988 -0.0018747917 2.369296e-24)
(0.99864315 -0.0022330307 7.1271484e-24)
(0.99872946 -0.0026230108 6.3252522e-24)
(0.99889432 -0.0030330253 -3.3493918e-23)
(0.99915146 -0.0034451476 -1.6109151e-24)
(0.99951027 -0.0038350233 8.2163024e-23)
(0.99997281 -0.0041732285 2.8553663e-22)
(1.000531 -0.0044285788 1.5558193e-22)
(1.0011649 -0.0045721135 -1.0582958e-22)
(1.0018445 -0.0045819605 1.2630634e-22)
(1.0025328 -0.0044478427 2.1597544e-22)
(1.0031914 -0.0041735045 1.6973091e-22)
(1.0037869 -0.0037756788 -4.4427487e-23)
(1.0042955 -0.0032807479 -4.1540572e-23)
(1.0047073 -0.0027192902 -1.9332858e-22)
(1.0050259 -0.0021252476 3.7374897e-22)
(1.0052682 -0.0015047502 -7.5667322e-23)
(1.0054546 -0.00093426439 7.9357263e-22)
(1.0056155 -0.0002384218 5.9240635e-23)
(0.99950592 -2.3576957e-05 -1.1074881e-24)
(0.99947717 -6.2145676e-05 2.1130848e-24)
(0.99943859 -0.00010141523 3.5195871e-24)
(0.99938303 -0.00015074366 3.0832545e-24)
(0.99931554 -0.00020968677 0)
(0.99923599 -0.00028257393 0)
(0.99914561 -0.000372209 0)
(0.999046 -0.00048208877 -1.8059361e-24)
(0.99893968 -0.00061610691 -2.7584737e-23)
(0.99883015 -0.00077848349 -1.4574219e-23)
(0.99872226 -0.00097358809 1.0362714e-23)
(0.99862257 -0.0012056433 2.104244e-25)
(0.9985397 -0.0014782358 -4.717624e-24)
(0.99848464 -0.0017936009 -2.9805973e-23)
(0.99847077 -0.0021516198 2.156631e-23)
(0.99851356 -0.0025485399 0)
(0.99862954 -0.0029756269 -7.169558e-25)
(0.99883478 -0.0034180247 1.6686269e-23)
(0.9991428 -0.0038537286 1.1229453e-22)
(0.99956133 -0.0042547536 -1.5175681e-23)
(1.0000883 -0.0045890257 -1.7514928e-22)
(1.0007101 -0.004823617 -8.7086811e-23)
(1.0014013 -0.0049296104 -1.9955115e-22)
(1.0021259 -0.0048876943 -2.0830722e-22)
(1.0028427 -0.0046926885 -3.078177e-23)
(1.0035121 -0.0043551134 8.817956e-23)
(1.0041022 -0.0038985307 -5.9610741e-23)
(1.004593 -0.0033539668 -1.4836816e-23)
(1.0049782 -0.0027544644 4.6966596e-22)
(1.005267 -0.0021346649 2.3332797e-22)
(1.0054804 -0.0015000213 7.1161831e-23)
(1.0056429 -0.00092540783 -2.3346527e-21)
(1.0057851 -0.00023508139 9.0735487e-22)
(0.99950181 -2.046696e-05 -1.9710852e-24)
(0.99947255 -5.4824038e-05 2.3016718e-24)
(0.9994335 -9.0743106e-05 3.218035e-24)
(0.9993766 -0.00013737595 1.0162468e-23)
(0.99930616 -0.00019357785 -6.9614012e-25)
(0.99922338 -0.00026128471 -4.0087684e-24)
(0.99912898 -0.00034508071 -1.8130623e-23)
(0.99902383 -0.00044818813 9.1720511e-24)
(0.9989099 -0.00057444879 9.0387895e-24)
(0.99879016 -0.00072816641 1.9890141e-23)
(0.99866878 -0.00091393386 1.1982987e-25)
(0.99855151 -0.0011364148 -6.9190282e-24)
(0.99844606 -0.0013999617 -6.5545683e-24)
(0.99836251 -0.0017080143 1.0602927e-23)
(0.99831351 -0.0020621983 -3.8014623e-24)
(0.99831421 -0.0024611017 -2.144123e-23)
(0.99838153 -0.0028989087 8.2968705e-25)
(0.99853317 -0.0033639822 9.3904807e-23)
(0.99878613 -0.0038374685 -1.7291191e-24)
(0.99915289 -0.0042939967 -2.6608282e-23)
(0.99963747 -0.0047020553 -4.743932e-23)
(1.0002337 -0.0050263129 -2.7861273e-22)
(1.0009221 -0.005231904 5.5057129e-23)
(1.0016701 -0.0052911203 -7.7969096e-23)
(1.0024361 -0.0051890073 -3.1755879e-22)
(1.0031756 -0.0049267396 -8.0428005e-23)
(1.0038486 -0.0045218457 -2.1853044e-23)
(1.0044259 -0.0040048744 -1.5012876e-22)
(1.0048925 -0.0034114681 1.2040265e-22)
(1.0052466 -0.0027765084 -7.2297542e-23)
(1.0055024 -0.0021341718 2.3002562e-22)
(1.0056852 -0.0014886791 5.1801323e-24)
(1.0058228 -0.00091274551 9.7987914e-22)
(1.0059459 -0.000230834 -1.7581041e-21)
(0.99949827 -1.7347063e-05 5.6617231e-25)
(0.99946845 -4.7504777e-05 -3.0140172e-24)
(0.9994289 -8.0143844e-05 -2.698097e-24)
(0.9993716 -0.00012291069 4.9471481e-25)
(0.99929918 -0.0001764323 2.1226566e-24)
(0.99921242 -0.00024127348 1.0098943e-23)
(0.99911417 -0.0003191426 2.283758e-24)
(0.99900428 -0.00041563357 0)
(0.99888381 -0.00053424802 1.0469519e-23)
(0.99875509 -0.0006792577 2.8419525e-23)
(0.9986217 -0.00085539707 1.8738449e-23)
(0.9984886 -0.001067645 1.4889523e-24)
(0.99836263 -0.0013209363 0)
(0.99825286 -0.0016196841 -1.6527396e-23)
(0.99817103 -0.001966995 1.3756329e-23)
(0.9981316 -0.0023635415 2.9691335e-23)
(0.99815137 -0.0028062683 -1.9372915e-23)
(0.99824908 -0.0032867377 0)
(0.99844424 -0.0037898286 -5.1176736e-23)
(0.99875301 -0.0042935299 -7.6431668e-23)
(0.99918563 -0.0047683013 -2.2667041e-22)
(0.99974324 -0.0051777641 -6.1118175e-23)
(1.0004134 -0.0054830151 0)
(1.0011694 -0.0056491662 -2.8321758e-22)
(1.001972 -0.0056516093 1.7692975e-23)
(1.0027746 -0.0054810958 4.134244e-24)
(1.00353 -0.0051460978 -1.7604893e-22)
(1.0041991 -0.0046713206 3.1715719e-23)
(1.0047563 -0.0040935247 2.11862e-23)
(1.0051924 -0.0034528744 5.7783502e-22)
(1.0055113 -0.0027853656 -1.0285976e-21)
(1.0057313 -0.0021240063 -5.4980749e-22)
(1.0058819 -0.0014710513 0)
(1.0059941 -0.00089652353 -3.8479901e-23)
(1.0060978 -0.00022574875 -5.4456713e-22)
(0.9994953 -1.4217927e-05 2.011452e-24)
(0.9994649 -4.0185483e-05 -2.9328e-24)
(0.99942477 -6.9523828e-05 3.3453498e-25)
(0.99936704 -0.00010856709 -2.1312661e-24)
(0.99929432 -0.00015784523 -4.995937e-24)
(0.99920476 -0.00021992602 9.3068406e-24)
(0.99910128 -0.00029478696 1.6114436e-23)
(0.99898682 -0.00038447887 4.2712336e-24)
(0.99886077 -0.0004955965 0)
(0.99872434 -0.00063198647 -7.3830332e-24)
(0.99858035 -0.00079837895 -3.5042661e-25)
(0.99843313 -0.00099997014 8.8652267e-24)
(0.99828862 -0.0012421268 -1.9050169e-24)
(0.99815492 -0.0015300194 7.0036816e-24)
(0.99804272 -0.0018679728 -1.398342e-23)
(0.99796554 -0.0022584593 4.7590802e-23)
(0.9979396 -0.0027009411 -3.6749669e-23)
(0.9979841 -0.0031900696 1.5771486e-23)
(0.99812012 -0.0037146975 1.0874127e-22)
(0.99836659 -0.0042567002 -1.0152967e-22)
(0.9987393 -0.0047894637 1.7360613e-22)
(0.9992463 -0.00527723 -3.9325176e-23)
(0.99988303 -0.0056791714 0)
(1.0006302 -0.0059548852 -7.7019863e-23)
(1.0014538 -0.0060707933 9.934445e-24)
(1.0023077 -0.006006587 1.5922924e-22)
(1.0031406 -0.0057599025 1.4648836e-22)
(1.0039043 -0.0053473518 9.2112914e-23)
(1.0045615 -0.0048011446 -4.0263629e-24)
(1.0050914 -0.0041633845 0)
(1.0054911 -0.0034779641 -4.0817754e-22)
(1.0057707 -0.0027812162 -1.1062188e-21)
(1.0059527 -0.0021045275 1.9292608e-21)
(1.00607 -0.0014475066 -6.5561867e-22)
(1.0061564 -0.00087701869 6.716864e-23)
(1.0062408 -0.000219899 1.9610122e-21)
(0.99949294 -1.1080251e-05 -1.0853779e-24)
(0.99946194 -3.2870201e-05 -9.1360507e-25)
(0.99942118 -5.8875867e-05 1.0169634e-24)
(0.99936289 -9.4190436e-05 9.0453052e-25)
(0.99928986 -0.00013943959 7.2578316e-25)
(0.9992001 -0.00019673716 3.9334002e-25)
(0.9990928 -0.00026872928 -2.1504863e-24)
(0.99897162 -0.00035525714 3.577351e-24)
(0.99884014 -0.0004585679 3.961381e-24)
(0.99869713 -0.00058647338 5.2956608e-24)
(0.99854406 -0.00074317147 -2.3250086e-24)
(0.99838436 -0.00093389248 1.2730576e-25)
(0.99822325 -0.0011643185 -7.1109736e-24)
(0.99806788 -0.0014401981 2.0888441e-23)
(0.99792784 -0.0017668247 -5.4292222e-23)
(0.99781552 -0.0021481779 2.6732854e-23)
(0.99774625 -0.0025859358 5.8505604e-24)
(0.99773919 -0.0030776365 4.4049407e-23)
(0.99781599 -0.0036161034 -4.9770348e-23)
(0.99799763 -0.0041873601 -2.215839e-23)
(0.99830438 -0.0047684025 1.1270181e-22)
(0.9987505 -0.0053257225 -1.8459572e-22)
(0.9993395 -0.0058186031 1.5062453e-22)
(1.0000608 -0.0062031866 0)
(1.0008875 -0.0064383065 3.4762042e-22)
(1.0017773 -0.0064927848 3.9761727e-22)
(1.0026776 -0.0063520528 -1.0265081e-22)
(1.0035334 -0.0060219125 2.8614898e-22)
(1.0042966 -0.0055277779 2.3989971e-23)
(1.0049335 -0.0049094337 -6.9383485e-25)
(1.005429 -0.0042136038 3.9008677e-22)
(1.0057869 -0.0034866444 -7.108467e-22)
(1.0060237 -0.0027644121 -8.5286534e-24)
(1.0061658 -0.0020761845 1.9880276e-21)
(1.006249 -0.0014184553 -8.2529866e-23)
(1.0063096 -0.00085452348 -6.2819311e-23)
(1.0063747 -0.00021336062 7.2425994e-22)
(0.99949121 -7.9300546e-06 -7.5077837e-25)
(0.99945956 -2.556112e-05 -9.1288398e-26)
(0.99941816 -4.8204203e-05 2.6682936e-24)
(0.99935924 -7.9770414e-05 3.4649714e-24)
(0.9992857 -0.00012098523 -1.4688634e-24)
(0.99919578 -0.00017381271 2.5406019e-24)
(0.99908843 -0.00024035681 -4.7432244e-24)
(0.99896216 -0.0003238808 7.8059767e-24)
(0.99882217 -0.00042387742 0)
(0.99867273 -0.00054281813 -9.64229e-25)
(0.9985119 -0.00068993241 0)
(0.99834149 -0.0008697829 0)
(0.9981657 -0.0010881383 3.5041996e-24)
(0.99799085 -0.001351187 1.2419305e-25)
(0.99782549 -0.0016649818 -1.0686949e-23)
(0.9976808 -0.0020347258 -1.9845515e-23)
(0.99757099 -0.0024639777 8.1035519e-23)
(0.99751469 -0.0029529175 -2.4428452e-23)
(0.99753335 -0.0034980882 3.9079605e-23)
(0.99764922 -0.0040897196 2.8102391e-23)
(0.9978859 -0.004708898 -1.6135704e-22)
(0.99826295 -0.0053256868 3.2760597e-23)
(0.99879155 -0.0059013616 5.4390073e-23)