/*--------------------------------*- C++ -*----------------------------------*\
  =========                 |
  \\      /  F ield         | OpenFOAM: The Open Source CFD Toolbox
   \\    /   O peration     | Website:  https://openfoam.org
    \\  /    A nd           | Version:  8
     \\/     M anipulation  |
\*---------------------------------------------------------------------------*/
FoamFile
{
    version     2.0;
    format      ascii;
    class       volVectorField;
    location    "0.966377";
    object      UMean;
}
// * * * * * * * * * * * * * * * * * * * * * * * * * * * * * * * * * * * * * //

dimensions      [0 1 -1 0 0 0 0];

internalField   nonuniform List<vector> 
9200
(
(1.0004802 -5.5662514e-06 1.552362e-25)
(1.0004582 -2.123469e-05 1.7270798e-23)
(1.0005068 -1.3543052e-05 0)
(1.0004242 -3.2201802e-05 -8.7556411e-24)
(1.0004843 -5.2930811e-05 1.7431793e-23)
(1.0005427 -2.0482713e-05 0)
(1.0003787 -4.2505112e-05 -9.0902144e-25)
(1.0004486 -8.0834064e-05 2.2741117e-24)
(1.0005189 -7.9644012e-05 0)
(1.0005932 -2.7749718e-05 0)
(1.0003255 -5.0985982e-05 1.3867346e-23)
(1.0004007 -0.00010687788 4.6391553e-24)
(1.000481 -0.00012141983 8.8363044e-24)
(1.0005676 -0.00010791824 6.6175014e-25)
(1.0006566 -3.5278177e-05 -5.3448678e-26)
(1.0002675 -5.7843767e-05 1.2158714e-23)
(1.0003448 -0.00012835678 -3.6870598e-24)
(1.0004304 -0.0001606672 2.5223665e-23)
(1.0005269 -0.00016455473 7.9849519e-24)
(1.0006288 -0.00013728127 -3.0607678e-24)
(1.0007327 -4.3176689e-05 -3.9449414e-23)
(1.0002072 -6.3148743e-05 6.2646438e-24)
(1.0002838 -0.00014573886 1.8040877e-23)
(1.000371 -0.00019323133 -1.5580963e-23)
(1.0004722 -0.00021777868 -1.6764842e-25)
(1.0005846 -0.00020948747 1.4550637e-23)
(1.0007023 -0.0001681236 1.2902499e-23)
(1.0008213 -5.1489194e-05 -1.1408192e-24)
(1.0001466 -6.7021474e-05 -2.4881094e-24)
(1.0002203 -0.00015921162 6.8065116e-24)
(1.0003061 -0.00021968356 1.1976737e-23)
(1.000408 -0.00026205683 -5.6806688e-24)
(1.000525 -0.00027746448 -2.3813696e-23)
(1.0006541 -0.00025680898 -1.0777417e-23)
(1.0007882 -0.00020061761 -3.0842133e-23)
(1.0009222 -6.0236903e-05 5.237503e-23)
(1.000087 -6.9602865e-05 -3.892989e-24)
(1.0001564 -0.00016907611 1.3573609e-23)
(1.0002384 -0.00024026068 -4.3256065e-24)
(1.0003376 -0.00029815048 8.5276692e-24)
(1.0004548 -0.00033420443 -1.4044129e-23)
(1.0005888 -0.00034051463 -4.5326806e-23)
(1.0007354 -0.00030680183 3.942827e-23)
(1.000886 -0.00023485382 -5.7387146e-23)
(1.0010352 -6.9417163e-05 -1.2263593e-22)
(1.0000297 -7.1045342e-05 -1.9950111e-25)
(1.0000935 -0.0001756861 -1.2485696e-23)
(1.0001701 -0.00025539089 8.7659538e-25)
(1.000264 -0.00032635785 1.6507576e-23)
(1.0003777 -0.00038065611 -4.8838533e-25)
(1.0005117 -0.00041065476 -2.6315215e-23)
(1.0006637 -0.00040734776 1.6102895e-23)
(1.0008284 -0.00035963194 4.2799464e-23)
(1.0009959 -0.00027083229 1.8878705e-23)
(1.0011599 -7.9005948e-05 2.0737589e-24)
(0.99997536 -7.1508391e-05 4.5867653e-26)
(1.000033 -0.00017942182 -7.4007741e-24)
(1.0001027 -0.00026559047 1.0018121e-23)
(1.0001895 -0.00034722695 -4.5592451e-24)
(1.0002968 -0.00041715945 3.3044173e-23)
(1.0004267 -0.00046837248 -5.2592523e-23)
(1.0005788 -0.0004919797 -9.8070326e-24)
(1.0007498 -0.00047822965 8.0584982e-23)
(1.0009331 -0.00041533179 -4.952464e-23)
(1.0011175 -0.00030847026 9.7647066e-23)
(1.0012961 -8.8959458e-05 -3.1119571e-23)
(0.9999245 -7.1147295e-05 8.388347e-25)
(0.99997547 -0.00018067479 1.1012087e-23)
(1.0000377 -0.00027142442 -1.2388937e-25)
(1.0001159 -0.00036142742 0)
(1.0002146 -0.00044436743 -8.804023e-25)
(1.0003371 -0.00051402542 2.2960706e-23)
(1.0004848 -0.00056203897 -1.1759548e-23)
(1.0006563 -0.00057856804 -3.5655832e-23)
(1.0008473 -0.00055325661 4.5471628e-23)
(1.0010495 -0.00047380798 -6.449964e-23)
(1.0012506 -0.0003476073 -5.3998693e-23)
(1.0014433 -9.9215742e-05 7.92263e-24)
(0.99987746 -7.0100425e-05 1.3059656e-25)
(0.99992161 -0.00017982694 -4.9252959e-24)
(0.99997593 -0.00027347241 0)
(1.0000447 -0.00036969964 0)
(1.0001332 -0.00046308979 -8.6246663e-24)
(1.0002458 -0.00054835059 3.7631009e-23)
(1.0003853 -0.00061786886 -4.3797639e-23)
(1.0005524 -0.00066219153 2.4613255e-23)
(1.0007446 -0.00067061303 -5.6093355e-25)
(1.0009561 -0.00063236149 -6.1805522e-25)
(1.0011775 -0.0005348468 1.0991546e-22)
(1.0013948 -0.00038801092 -1.7902965e-22)
(1.001601 -0.00010969667 3.2408803e-22)
(0.9998343 -6.8496196e-05 -2.5096029e-24)
(0.99987171 -0.00017723235 5.8842019e-25)
(0.99991793 -0.00027230333 -6.2440926e-24)
(0.99997676 -0.00037281025 9.0552743e-24)
(1.0000541 -0.00047423294 -1.1238347e-23)
(1.000155 -0.0005722791 1.092502e-23)
(1.0002835 -0.00066026196 2.4305483e-24)
(1.0004419 -0.00072939075 -2.2363116e-24)
(1.00063 -0.00076915415 -3.7774068e-24)
(1.000844 -0.00076811676 -1.2367954e-23)
(1.0010766 -0.00071531866 2.0050365e-23)
(1.0013168 -0.00059812152 6.125111e-23)
(1.0015498 -0.00042938337 4.8171492e-23)
(1.0017685 -0.00012031015 -9.9114241e-23)
(0.99979502 -6.6453681e-05 9.0224361e-24)
(0.99982589 -0.00017321704 1.6573602e-23)
(0.9998641 -0.00026845673 2.5153032e-24)
(0.9999129 -0.00037151774 -1.3766347e-24)
(0.99997851 -0.00047874539 1.5579988e-24)
(1.0000664 -0.00058686932 -1.3178284e-23)
(1.0001818 -0.00069024508 9.5771722e-25)
(1.0003283 -0.00078097741 -1.5949367e-24)
(1.0005075 -0.00084907366 1.6644841e-23)
(1.0007181 -0.00088304127 5.0639083e-24)
(1.0009547 -0.00087089347 -9.6092944e-25)
(1.0012085 -0.00080174982 3.6132555e-23)
(1.0014673 -0.00066320138 -1.2729628e-22)
(1.001715 -0.00047137011 9.3432169e-23)
(1.001945 -0.00013095279 -1.0239112e-22)
(0.99975951 -6.407642e-05 1.1316791e-24)
(0.99978414 -0.00016807758 -4.8182667e-24)
(0.99981461 -0.00026243104 6.8566512e-24)
(0.9998535 -0.000366547 -7.559957e-24)
(0.99990721 -0.00047757437 9.3101045e-24)
(0.99998153 -0.00059324318 -8.5590895e-24)
(1.0000822 -0.00070900846 3.3460369e-23)
(1.0002143 -0.00081803989 -4.0114821e-24)
(1.0003809 -0.00091115778 -4.8157781e-24)
(1.0005828 -0.00097718299 5.4986922e-23)
(1.0008172 -0.0010037588 -7.7458821e-23)
(1.0010771 -0.00097857293 9.9109834e-23)
(1.001352 -0.00089113203 3.7917865e-23)
(1.0016285 -0.00072956263 -3.3236474e-24)
(1.0018897 -0.00051356931 -3.6490833e-23)
(1.0021297 -0.00014151272 1.2254212e-22)
(0.99972758 -6.1454616e-05 0)
(0.99974637 -0.00016207668 -9.7959591e-24)
(0.99976946 -0.0002546768 -4.3662058e-24)
(0.99979877 -0.00035857191 0)
(0.99984073 -0.00047163274 0)
(0.9999012 -0.00059253381 0)
(0.99998641 -0.00071783421 -4.7182254e-24)
(1.0001022 -0.00084187223 9.7443644e-25)
(1.0002532 -0.0009565129 -5.9719033e-23)
(1.0004422 -0.0010512497 7.5328596e-24)
(1.0006685 -0.0011137654 -2.2596484e-23)
(1.0009277 -0.0011310046 1.1133574e-23)
(1.0012113 -0.0010906061 -1.8597453e-23)
(1.0015068 -0.00098280885 -3.8978181e-23)
(1.0017998 -0.00079660099 1.3847083e-23)
(1.0020731 -0.00055554281 -5.4927727e-23)
(1.0023216 -0.00015187279 0)
(0.99969902 -5.8664136e-05 6.1714482e-24)
(0.9997124 -0.00015544024 8.2463377e-24)
(0.99972856 -0.00024559349 -2.2394665e-23)
(0.99974876 -0.00034820455 -1.789149e-23)
(0.99977933 -0.00046177516 -1.7553289e-23)
(0.99982607 -0.00058584406 0)
(0.99989541 -0.00071803517 -3.238938e-23)
(0.99999381 -0.00085389662 1.7092593e-23)
(1.0001271 -0.00098649924 5.0627305e-23)
(1.0002996 -0.001106312 -8.7259521e-23)
(1.0005129 -0.0012014818 -1.4647932e-24)
(1.0007653 -0.001258645 -3.2477144e-23)
(1.0010503 -0.00126427 8.2231352e-23)
(1.0013574 -0.0012062735 -7.3564239e-23)
(1.0016727 -0.0010760066 5.0875093e-23)
(1.0019808 -0.00086364698 -3.5684089e-22)
(1.0022644 -0.00059682799 -1.3476687e-22)
(1.0025196 -0.0001619138 -2.0137357e-22)
(0.9996736 -5.5768994e-05 -3.2806734e-25)
(0.99968199 -0.00014836202 6.8965442e-24)
(0.99969173 -0.00023552897 -8.0778571e-26)
(0.99970338 -0.00033598958 -1.3772283e-23)
(0.9997231 -0.00044878274 2.4964618e-24)
(0.99975649 -0.00057421563 7.5292358e-24)
(0.99981002 -0.00071090451 5.7602126e-23)
(0.99989047 -0.00085559409 7.5881335e-23)
(1.0000045 -0.0010026503 3.4185472e-23)
(1.0001579 -0.0011437479 1.4911279e-23)
(1.0003542 -0.0012678786 2.3282062e-23)
(1.0005941 -0.0013618571 -1.4660036e-23)
(1.0008739 -0.0014114205 7.843771e-23)
(1.0011852 -0.0014028451 -2.6734095e-23)
(1.0015155 -0.0013246974 -4.5401731e-23)
(1.0018493 -0.0011698513 4.6834337e-23)
(1.0021707 -0.00092998341 -1.3901736e-22)
(1.0024625 -0.00063695065 3.2584934e-23)
(1.0027226 -0.00017151775 -2.39139e-22)
(0.99965105 -5.2821087e-05 -2.6652684e-24)
(0.9996549 -0.0001410036 -6.0267539e-24)
(0.99965874 -0.00022478101 3.3650874e-23)
(0.99966245 -0.00032240286 9.5329142e-24)
(0.99967198 -0.00043335439 -9.5882233e-25)
(0.99969262 -0.00055860795 3.980152e-24)
(0.99973069 -0.00069767671 -6.5232341e-24)
(0.99979314 -0.0008484448 -1.138543e-24)
(0.99988714 -0.0010065964 1.3437749e-23)
(1.0000195 -0.0011651626 7.6502542e-23)
(1.0001956 -0.0013142908 7.8078226e-24)
(1.0004184 -0.0014414367 -2.5283808e-23)
(1.0006868 -0.0015321449 -1.6774628e-23)
(1.0009951 -0.0015714637 3.1097299e-24)
(1.0013329 -0.0015458251 -4.5624059e-23)
(1.0016855 -0.0014448586 1.3609564e-22)
(1.0020361 -0.0012633887 -1.3543143e-22)
(1.0023685 -0.00099486405 2.1631157e-22)
(1.0026664 -0.00067543767 6.1923065e-23)
(1.0029295 -0.00018057101 2.7379085e-22)
(0.99963112 -4.9863672e-05 -1.7429933e-24)
(0.99963087 -0.00013349974 -1.1407504e-23)
(0.99962934 -0.00021360089 -1.1481402e-23)
(0.99962574 -0.00030785326 -1.1423001e-23)
(0.9996258 -0.00041610387 9.0997674e-24)
(0.99963441 -0.00053988553 1.1673973e-23)
(0.99965766 -0.00067949948 -4.6904464e-23)
(0.99970241 -0.00083387977 -1.0844653e-22)
(0.99977612 -0.0009999959 -2.4395652e-23)
(0.99988634 -0.0011723075 0)
(1.0000399 -0.0013423436 -1.0832856e-23)
(1.0002416 -0.0014986026 -7.3780417e-23)
(1.0004932 -0.0016269805 -4.1626541e-23)
(1.0007918 -0.0017118727 1.1444898e-22)
(1.0011296 -0.0017379212 1.4718098e-23)
(1.0014935 -0.0016921215 6.184054e-23)
(1.0018671 -0.0015656191 -9.1915259e-23)
(1.0022325 -0.0013556074 -1.2013923e-22)
(1.0025734 -0.0010575333 2.0551318e-22)
(1.0028749 -0.00071182985 -1.1342207e-23)
(1.003139 -0.00018896731 3.0445616e-22)
(0.99961356 -4.6929621e-05 1.9725726e-26)
(0.99960963 -0.00012595836 -9.2002192e-24)
(0.99960323 -0.00020219723 -1.4465569e-23)
(0.99959298 -0.00029268645 1.5859254e-23)
(0.99958431 -0.00039756082 2.0186755e-23)
(0.99958172 -0.00051881227 3.2299135e-24)
(0.99959094 -0.00065741573 0)
(0.99961861 -0.00081324443 2.1123717e-23)
(0.99967223 -0.00098447647 4.4653612e-23)
(0.99975979 -0.0011670028 3.7781981e-23)
(0.99988913 -0.00135387 -2.8265299e-23)
(1.0000669 -0.0015349344 -3.1649918e-23)
(1.0002971 -0.0016969439 1.5440976e-23)
(1.0005799 -0.0018242598 -1.1142668e-23)
(1.0009103 -0.0019003201 -5.1684528e-23)
(1.0012779 -0.0019097197 6.4674215e-23)
(1.0016673 -0.0018404796 -5.9385892e-24)
(1.0020601 -0.0016857466 9.588842e-23)
(1.0024376 -0.0014454638 -7.0017495e-23)
(1.0027843 -0.0011172459 -1.659749e-23)
(1.0030869 -0.0007456939 1.537227e-22)
(1.0033498 -0.00019661025 0)
(0.99959814 -4.4045088e-05 -2.141348e-24)
(0.99959091 -0.00011846812 5.184985e-24)
(0.99958013 -0.00019074095 1.679246e-24)
(0.99956386 -0.00027719021 2.4299226e-23)
(0.99954724 -0.00037817496 1.9928558e-23)
(0.99953431 -0.00049605123 -1.027418e-23)
(0.99953041 -0.00063235398 -1.5990212e-23)
(0.99954184 -0.0007877735 -4.1778559e-23)
(0.99957594 -0.00096158872 -5.0272836e-24)
(0.99964088 -0.0011510672 -7.957105e-24)
(0.99974517 -0.0013508251 2.8975108e-24)
(0.99989678 -0.0015522927 7.3655438e-23)
(1.0001019 -0.0017434884 2.0593241e-24)
(1.0003635 -0.0019093417 -1.5458252e-22)
(1.0006798 -0.0020327663 -4.9390114e-23)
(1.0010433 -0.0020965156 4.211786e-24)
(1.0014407 -0.0020855755 4.0262987e-23)
(1.0018542 -0.0019895018 -1.0835631e-22)
(1.0022638 -0.0018039406 -3.2528813e-23)
(1.0026506 -0.0015319082 9.9083936e-23)
(1.0030001 -0.0011732868 0)
(1.0033012 -0.00077663322 -3.9648422e-22)
(1.0035608 -0.00020341554 1.0506142e-23)
(0.99958463 -4.1230957e-05 -6.7471e-24)
(0.99957446 -0.00011109811 6.0883064e-24)
(0.99955978 -0.00017936935 -1.2139655e-23)
(0.99953807 -0.00026160027 -4.0313633e-24)
(0.99951424 -0.00035832209 2.1978924e-23)
(0.99949186 -0.00047216837 0)
(0.99947583 -0.00060512579 -3.8775737e-24)
(0.99947201 -0.00075857621 -1.8260008e-24)
(0.99948744 -0.00093277234 -4.0002325e-23)
(0.99953024 -0.0011262606 -9.3215133e-23)
(0.99960926 -0.0013352057 2.2873353e-24)
(0.99973345 -0.0015527294 3.0615443e-23)
(0.99991075 -0.0017684336 -3.7694107e-23)
(1.0001466 -0.0019683497 -8.7987028e-24)
(1.0004425 -0.0021355689 -1.1229727e-23)
(1.0007943 -0.0022517209 7.9006578e-23)
(1.0011916 -0.0022992385 1.7245763e-22)
(1.0016182 -0.0022640087 -2.2391789e-23)
(1.002054 -0.0021376768 2.5014705e-22)
(1.0024777 -0.0019188628 -2.3619379e-22)
(1.0028705 -0.001613912 -2.9359891e-22)
(1.0032197 -0.0012249886 4.1163818e-22)
(1.0035165 -0.00080429716 -3.6334222e-22)
(1.0037709 -0.00020931273 8.5377745e-24)
(0.99957282 -3.8501241e-05 5.6854274e-24)
(0.99956006 -0.00010390069 8.5074541e-24)
(0.99954189 -0.00016819102 1.1111871e-23)
(0.99951533 -0.00024610657 4.6700975e-23)
(0.999485 -0.00033831128 -9.5049643e-24)
(0.99945404 -0.00044763904 2.8381079e-23)
(0.99942687 -0.00057642833 -3.8448053e-24)
(0.99940889 -0.00072662985 4.2065152e-23)
(0.99940671 -0.0008993341 6.3936549e-24)
(0.99942819 -0.001094239 -1.976502e-23)
(0.99948227 -0.0013089792 -1.9989911e-23)
(0.99957848 -0.0015383954 -7.5850782e-23)
(0.99972607 -0.0017738741 -9.1031474e-24)
(0.9999327 -0.0020029763 9.4538389e-24)
(1.0002028 -0.0022096268 8.2004336e-23)
(1.0005357 -0.0023751225 -1.113952e-23)
(1.0009247 -0.0024800646 2.5434816e-23)
(1.0013561 -0.0025070258 -9.621562e-24)
(1.0018108 -0.0024433663 0)
(1.0022664 -0.0022834098 7.5197619e-24)
(1.0027009 -0.0020291698 -1.2057905e-24)
(1.0030962 -0.0016904922 1.1646005e-23)
(1.0034417 -0.0012717479 -6.4441196e-23)
(1.0037317 -0.00082838868 5.016141e-22)
(1.0039788 -0.00021424639 3.2463088e-22)
(0.99956253 -3.5866187e-05 3.7735584e-24)
(0.99954747 -9.6917638e-05 -7.1406619e-24)
(0.99952621 -0.0001572898 -6.2222462e-24)
(0.99949533 -0.00023085921 -5.5118347e-24)
(0.99945918 -0.00031839247 -4.5320635e-23)
(0.99942048 -0.0004228561 -1.0352136e-23)
(0.99938318 -0.00054685066 -4.221745e-24)
(0.99935217 -0.00069278022 -2.1632908e-24)
(0.99933356 -0.00086243608 -3.55799e-23)
(0.99933481 -0.0010565237 -2.0640854e-23)
(0.99936469 -0.0012740268 -1.7692975e-23)
(0.99943299 -0.0015114569 1.1125085e-23)
(0.99954985 -0.0017620786 4.2967187e-23)
(0.99972467 -0.0020152876 1.5818043e-23)
(0.99996451 -0.0022564011 4.1084293e-23)
(1.0002723 -0.0024671636 -1.4074915e-22)
(1.0006449 -0.002627204 -3.4633319e-22)
(1.0010723 -0.002716455 -1.5777715e-23)
(1.0015376 -0.0027181836 1.9797775e-23)
(1.0020185 -0.0026218535 -1.2179604e-23)
(1.0024909 -0.0024250569 -1.4710192e-22)
(1.0029325 -0.0021335453 -1.8459559e-22)
(1.0033266 -0.0017607365 3.8491793e-22)
(1.0036651 -0.0013130389 -4.7182824e-22)
(1.0039456 -0.00084866981 4.2510732e-22)
(1.0041836 -0.00021817649 -2.0089133e-23)
(0.99955357 -3.3331851e-05 -8.9760418e-27)
(0.99953651 -9.017896e-05 -2.4376337e-24)
(0.9995125 -0.00014672838 1.5254826e-23)
(0.99947779 -0.00021597425 -2.1267423e-23)
(0.99943646 -0.00029876408 2.439754e-23)
(0.99939081 -0.00039813883 -3.0787759e-23)
(0.99934435 -0.00051688245 -3.647499e-23)
(0.99930145 -0.00065774693 -1.4436133e-23)
(0.99926766 -0.00082309255 5.258962e-23)
(0.99924995 -0.0010144819 2.3209057e-23)
(0.99925671 -0.0012320997 1.03039e-23)
(0.9992977 -0.0014740228 4.5890756e-23)
(0.99938357 -0.0017353924 -3.2800792e-23)
(0.99952497 -0.002007618 4.7790712e-23)
(0.99973117 -0.0022778397 1.5389892e-23)
(1.0000082 -0.0025289522 -3.4280402e-23)
(1.0003571 -0.0027405109 3.3156978e-23)
(1.0007717 -0.0028907031 -5.8429066e-23)
(1.0012384 -0.0029592665 2.943031e-23)
(1.0017366 -0.0029308042 -5.7886398e-23)
(1.0022412 -0.0027975674 0)
(1.0027269 -0.0025609616 -9.1520612e-23)
(1.0031715 -0.0022307315 6.1583935e-23)
(1.0035604 -0.0018238243 0)
(1.0038884 -0.0013484249 5.9208397e-22)
(1.004157 -0.00086496474 -2.6910991e-23)
(1.0043842 -0.00022107759 -3.7737193e-22)
(0.99954579 -3.0903995e-05 -7.3645009e-25)
(0.99952697 -8.370533e-05 -1.3999867e-24)
(0.99950056 -0.00013655214 1.3137588e-23)
(0.99946245 -0.00020153908 1.0057072e-24)
(0.99941653 -0.00027958032 1.1614834e-23)
(0.99936467 -0.00037374204 3.363779e-23)
(0.99930998 -0.00048692398 1.9478529e-24)
(0.9992563 -0.00062213212 2.5112404e-23)
(0.99920862 -0.00078217321 -1.3085463e-23)
(0.99917331 -0.00096931837 -2.5008386e-23)
(0.99915827 -0.0011847912 6.278071e-23)
(0.99917299 -0.0014280881 4.7855363e-23)
(0.99922824 -0.0016961482 4.1953473e-23)
(0.99933547 -0.0019824587 1.2827738e-23)
(0.99950568 -0.0022762713 6.0793389e-23)
(0.99974771 -0.0025622073 2.095064e-23)
(1.0000662 -0.0028206008 1.8551867e-22)
(1.0004594 -0.0030288942 1.2837289e-22)
(1.0009179 -0.0031641787 6.8587058e-23)
(1.0014239 -0.0032065939 2.8235282e-22)
(1.0019534 -0.003142795 -1.178672e-23)
(1.0024786 -0.0029685303 -8.5136708e-23)
(1.0029733 -0.0026894899 -1.8836527e-24)
(1.0034166 -0.0023195581 0)
(1.0037962 -0.001879045 0)
(1.0041107 -0.0013775646 -3.9109083e-23)
(1.004365 -0.00087715912 6.6170883e-22)
(1.0045798 -0.00022293742 7.6885964e-22)
(0.99953903 -2.8588984e-05 0)
(0.99951869 -7.7507824e-05 -2.5994562e-24)
(0.99949016 -0.00012679099 -1.3211886e-23)
(0.99944908 -0.00018761723 -1.4979757e-23)
(0.99939908 -0.00026095803 -2.8991965e-23)
(0.99934171 -0.00034986492 -1.0494736e-23)
(0.99927967 -0.0004572966 1.8278071e-23)
(0.99921628 -0.00058643119 4.2408427e-23)
(0.99915597 -0.00074041118 -3.0103565e-23)
(0.99910448 -0.00092207519 -4.8294561e-24)
(0.99906912 -0.0011335204 -3.8238075e-24)
(0.9990589 -0.0013754922 1.1133003e-23)
(0.99908443 -0.0016465928 9.4074009e-23)
(0.99915754 -0.0019423517 2.5128018e-23)
(0.99929042 -0.0022542835 1.2091111e-23)
(0.99949415 -0.0025691583 6.7415823e-23)
(0.99977673 -0.0028688283 1.8648052e-23)
(1.0001408 -0.003130992 4.4582901e-23)
(1.0005814 -0.0033311701 -5.9782422e-24)
(1.0010851 -0.0034458453 1.4798535e-22)
(1.0016299 -0.0034562706 1.8016883e-23)
(1.0021882 -0.0033519314 4.7943495e-24)
(1.0027301 -0.0031327513 -2.6634129e-23)
(1.0032293 -0.0028090772 3.0888385e-22)
(1.0036666 -0.0023989688 1.7901471e-24)
(1.004033 -0.0019258104 5.6208176e-23)
(1.0043307 -0.0014002173 -6.9913296e-22)
(1.0045685 -0.00088519584 4.7620331e-22)
(1.0047696 -0.00022376019 -1.2406889e-21)
(0.9995332 -2.638117e-05 -2.5945941e-26)
(0.9995115 -7.1589983e-05 0)
(0.99948112 -0.00011745892 0)
(0.99943743 -0.00017425125 0)
(0.99938386 -0.00024298298 6.6755572e-24)
(0.99932162 -0.00032665943 -2.314952e-23)
(0.99925302 -0.00042825316 -4.9329481e-24)
(0.99918094 -0.00055104447 -1.0146887e-23)
(0.99910923 -0.00069841391 -5.1772345e-23)
(0.99904299 -0.00087363804 6.1474899e-23)
(0.99898886 -0.0010795268 1.8725151e-24)
(0.99895525 -0.0013178938 2.9324692e-25)
(0.99895237 -0.0015888309 -4.5045489e-23)
(0.99899205 -0.0018897978 -3.6801826e-23)
(0.99908717 -0.0022145992 -8.3042517e-23)
(0.99925049 -0.0025524172 1.8459705e-23)
(0.99949285 -0.0028872021 8.3878777e-23)
(0.99982091 -0.0031978256 -5.6767228e-23)
(1.0002346 -0.0034593779 -1.2824179e-22)
(1.0007252 -0.0036457853 -1.2781895e-22)
(1.0012748 -0.0037335537 -4.4495669e-23)
(1.001857 -0.0037058687 8.8272732e-23)
(1.0024407 -0.0035558799 -2.7055499e-23)
(1.0029949 -0.0032882788 1.3170587e-22)
(1.0034935 -0.0029182889 -9.4803623e-23)
(1.0039201 -0.0024680526 1.2484947e-22)
(1.0042693 -0.0019636659 -5.6939729e-22)
(1.0045472 -0.0014162405 1.0428423e-22)
(1.0047667 -0.00088907608 -1.9299711e-21)
(1.0049528 -0.00022357266 -7.9044342e-22)
(0.99952782 -2.4033504e-05 -4.0077601e-24)
(0.99950524 -6.6010625e-05 -1.6085095e-24)
(0.99947322 -0.00010856083 0)
(0.99942728 -0.00016146177 0)
(0.9993706 -0.00022571341 0)
(0.99930406 -0.00030423812 0)
(0.99922967 -0.00039998799 0)
(0.99914984 -0.00051628918 2.5132453e-24)
(0.99906789 -0.00065667589 9.1018917e-24)
(0.99898829 -0.00082474662 -6.3298699e-23)
(0.99891699 -0.0010238736 -5.0004408e-24)
(0.99886168 -0.0012567574 8.7657564e-24)
(0.99883198 -0.0015247857 4.4174653e-23)
(0.99883944 -0.001827181 -7.4244225e-23)
(0.99889717 -0.0021599634 8.6299963e-24)
(0.99901903 -0.0025148392 -8.8195601e-24)
(0.9992181 -0.0028782603 -2.420627e-23)
(0.99950454 -0.0032310379 -4.7371613e-23)
(0.999883 -0.0035489239 1.3406931e-22)
(1.0003501 -0.0038045052 6.3308977e-23)
(1.0008928 -0.0039705946 8.0190293e-24)
(1.0014881 -0.0040245685 1.595372e-22)
(1.0021053 -0.0039524986 1.5211633e-23)
(1.0027105 -0.003752053 1.6709556e-24)
(1.0032718 -0.0034331237 1.4177713e-22)
(1.0037647 -0.0030158233 -2.9942847e-22)
(1.0041758 -0.0025260704 -9.5614623e-23)
(1.0045038 -0.0019922984 2.467825e-22)
(1.0047594 -0.0014255855 1.1586569e-23)
(1.0049589 -0.00088887381 1.4621838e-21)
(1.0051289 -0.00022240931 5.2288185e-22)
(0.99952275 -2.1516624e-05 1.4315768e-24)
(0.99949972 -6.0096719e-05 -5.453438e-24)
(0.99946629 -0.00010017944 -8.5216634e-24)
(0.99941836 -0.00014925637 -1.648996e-23)
(0.99935901 -0.00020917854 0)
(0.99928875 -0.00028267845 0)
(0.99920926 -0.00037264638 -4.4504137e-24)
(0.99912256 -0.00048241103 -2.8310326e-23)
(0.99903147 -0.00061559183 3.5080693e-23)
(0.99893985 -0.00077600769 -4.0751923e-23)
(0.99885294 -0.0009674562 1.34512e-23)
(0.99877768 -0.0011933517 4.319085e-23)
(0.99872297 -0.0014561766 -2.683728e-23)
(0.9986998 -0.0017567137 8.0322902e-24)
(0.99872116 -0.0020930475 4.3555456e-23)
(0.99880146 -0.0024593904 6.4632224e-24)
(0.99895537 -0.002844923 -1.1427124e-22)
(0.99919592 -0.0032329767 2.2301163e-24)
(0.99953207 -0.0036009 1.5753762e-22)
(0.99996588 -0.0039211997 2.0729564e-22)
(1.00049 -0.0041643648 2.0261328e-22)
(1.0010861 -0.0043028849 -7.4775794e-23)
(1.001726 -0.0043158704 2.6851845e-23)
(1.0023749 -0.0041931789 1.8093148e-22)
(1.0029967 -0.0039378187 1.9301954e-22)
(1.0035596 -0.003565289 -1.0124142e-22)
(1.0040412 -0.0031004588 -7.0444937e-23)
(1.0044321 -0.0025724575 -2.0138163e-22)
(1.0047355 -0.0020115377 3.8798469e-22)
(1.0049662 -0.001428297 -6.8759227e-23)
(1.0051443 -0.00088472636 7.7340592e-22)
(1.0052976 -0.00022030737 5.7389271e-23)
(0.9995182 -1.9009825e-05 -6.0506015e-25)
(0.99949472 -5.3711258e-05 3.8483394e-24)
(0.99946053 -9.1292507e-05 7.5925696e-24)
(0.99941046 -0.00013776061 8.6325177e-24)
(0.99934877 -0.00019339029 0)
(0.99927536 -0.00026202034 0)
(0.99919145 -0.00034632974 0)
(0.99909869 -0.00044959555 -1.4604522e-24)
(0.99899948 -0.00057547011 -6.2437406e-23)
(0.9988971 -0.00072790958 -4.6131823e-23)
(0.99879611 -0.00091101546 1.5546177e-23)
(0.99870266 -0.0011287554 5.5391288e-24)
(0.99862484 -0.0013845091 -7.6742871e-23)
(0.99857293 -0.0016804002 6.6719759e-25)
(0.99855945 -0.0020163739 2.5455479e-23)
(0.99859891 -0.0023890282 0)
(0.99870692 -0.0027903413 -2.2708776e-23)
(0.99889868 -0.0032065397 4.2743361e-23)
(0.9991869 -0.0036173179 1.2493465e-22)
(0.99957886 -0.0039963727 -2.8474578e-23)
(1.0000731 -0.0043133858 -1.4224853e-22)
(1.0006572 -0.0045372476 -1.1025194e-22)
(1.0013072 -0.0046406569 -1.4988005e-22)
(1.0019897 -0.0046052325 -1.278775e-22)
(1.002666 -0.0044256269 -7.096701e-23)
(1.0032985 -0.0041110566 8.3474593e-23)
(1.0038567 -0.0036831053 -5.4783011e-23)
(1.0043216 -0.0031711413 -1.591268e-23)
(1.0046876 -0.0026068071 4.9539823e-22)
(1.0049631 -0.0020213503 2.5327532e-22)
(1.0051668 -0.0014245213 6.1748804e-23)
(1.0053223 -0.00087680074 -2.2643777e-21)
(1.0054582 -0.00021731737 8.7118675e-22)
(0.99951419 -1.6494389e-05 -1.8278254e-24)
(0.9994902 -4.737818e-05 3.405869e-24)
(0.99945565 -8.1660508e-05 8.9251049e-24)
(0.99940432 -0.00012556618 2.1903152e-23)
(0.99933961 -0.00017852908 -2.9543117e-24)
(0.99926346 -0.00024228111 -6.4508344e-24)
(0.99917583 -0.00032109183 -4.2765619e-23)
(0.99907784 -0.0004179741 2.3759571e-23)
(0.99897147 -0.00053654588 1.6126422e-23)
(0.99885952 -0.00068083712 8.091957e-23)
(0.99874589 -0.00085515268 -2.4947548e-23)
(0.99863597 -0.001063869 -5.5405172e-23)
(0.998537 -0.0013110764 -9.4838303e-24)
(0.99845839 -0.0016000172 5.2544654e-23)
(0.99841198 -0.0019322626 3.7888564e-23)
(0.99841197 -0.0023066023 -2.4742053e-23)
(0.99847433 -0.0027177492 -9.1942288e-24)
(0.99861575 -0.0031549975 9.031301e-23)
(0.99885201 -0.0036009729 7.4875715e-24)
(0.99919498 -0.0040316938 -2.6786819e-23)
(0.99964899 -0.0044174599 -8.7172021e-23)
(1.0002083 -0.0047250844 -2.0578243e-22)
(1.0008548 -0.0049219707 6.7803106e-23)
(1.0015584 -0.0049818653 -1.3593725e-22)
(1.0022803 -0.0048902197 -2.0150738e-22)
(1.0029784 -0.0046475963 -3.4025064e-23)
(1.0036149 -0.0042699825 2.4929757e-23)
(1.0041617 -0.0037852958 -1.3657914e-22)
(1.0046041 -0.003227108 1.5000393e-22)
(1.004941 -0.002628868 -7.2559529e-23)
(1.0051855 -0.0020218296 2.334217e-22)
(1.0053605 -0.0014144891 7.8262365e-24)
(1.0054926 -0.00086528762 9.4691574e-22)
(1.0056108 -0.00021349714 -1.6810744e-21)
(0.99951074 -1.3973291e-05 -2.8217238e-25)
(0.99948618 -4.1049008e-05 -4.4521592e-24)
(0.99945116 -7.2103808e-05 -7.5823955e-24)
(0.99939962 -0.00011232444 -2.9916961e-24)
(0.99933298 -0.00016275756 9.5438236e-24)
(0.99925271 -0.0002237127 2.6209978e-23)
(0.99916189 -0.00029695716 5.5558156e-24)
(0.99905953 -0.00038761822 0)
(0.99894697 -0.00049898812 2.9693058e-23)
(0.99882657 -0.00063508692 1.041233e-22)
(0.99870168 -0.00080034614 3.3419329e-23)
(0.99857694 -0.00099942999 1.9203545e-23)
(0.99845874 -0.0012369686 0)
(0.99835557 -0.0015171078 -2.9015926e-23)
(0.99827841 -0.001842798 -6.0251929e-23)
(0.9982408 -0.0022147787 3.6615272e-23)
(0.9982586 -0.0026303352 6.348864e-23)
(0.99834936 -0.0030818269 0)
(0.99853111 -0.003555222 -9.4020815e-23)
(0.99881947 -0.0040296899 -1.4553233e-22)
(0.99922423 -0.0044774228 -1.9041369e-22)
(0.99974646 -0.0048646039 -1.0990444e-22)
(1.000375 -0.0051549504 0)
(1.0010853 -0.0053154916 -1.9521595e-22)
(1.0018408 -0.0053226261 -4.018244e-23)
(1.0025975 -0.0051670258 8.648546e-24)
(1.0033111 -0.0048560633 -1.1940501e-22)
(1.0039444 -0.0044126405 -2.5673389e-23)
(1.004473 -0.003870774 1.9097471e-23)
(1.0048871 -0.0032678912 6.5559304e-22)
(1.0051909 -0.0026385793 -1.0944196e-21)
(1.0054018 -0.0020131925 -5.6940393e-22)
(1.0055466 -0.0013985022 0)
(1.0056547 -0.00085041492 -3.7214866e-23)
(1.0057549 -0.00020890984 -5.1807215e-22)
(0.99950784 -1.1447004e-05 2.0014543e-24)
(0.99948271 -3.4721507e-05 -4.0548772e-24)
(0.99944712 -6.2532387e-05 -2.2039079e-24)
(0.99939517 -9.9205613e-05 -4.2313133e-24)
(0.99932853 -0.00014559124 -5.6997654e-24)
(0.99924547 -0.00020398609 1.5604926e-23)
(0.99914921 -0.00027426959 3.6578779e-23)
(0.99904313 -0.00035856189 6.9445042e-24)
(0.99892543 -0.00046289115 0)
(0.99879773 -0.00059087507 -3.1241233e-23)
(0.99866287 -0.00074696843 2.2590533e-23)
(0.99852489 -0.00093603081 1.2406605e-23)
(0.99838934 -0.0011630874 1.9460465e-23)
(0.99826376 -0.0014329863 -2.8107642e-23)
(0.99815816 -0.0017498128 -5.4947171e-23)
(0.9980852 -0.0021159886 3.2217055e-24)
(0.9980602 -0.0025311359 1.4628687e-22)
(0.99810099 -0.0029905565 1.0596184e-22)
(0.99822709 -0.0034837487 6.9808064e-23)
(0.99845686 -0.0039935887 2.0596382e-23)
(0.99880496 -0.004495094 1.0735129e-22)
(0.99927907 -0.0049553167 7.2015284e-23)
(0.99987553 -0.0053361721 0)
(1.0005767 -0.0055995659 -5.5952437e-23)
(1.0013508 -0.0057136034 -3.6622434e-24)
(1.0021549 -0.0056586312 9.7252937e-23)
(1.0029407 -0.0054317307 1.4016436e-22)
(1.0036626 -0.0050478758 8.682111e-23)
(1.0042853 -0.0045370052 -5.0139458e-23)
(1.0047886 -0.0039385676 0)
(1.005169 -0.0032932495 -4.8259703e-22)
(1.0054359 -0.0026360638 -1.189402e-21)
(1.0056112 -0.0019957701 1.909303e-21)
(1.0057247 -0.001376905 -6.2767665e-22)
(1.0058084 -0.00083243974 6.6350226e-23)
(1.0058906 -0.00020362238 1.863268e-21)
(0.99950553 -8.9162918e-06 -7.0648344e-25)
(0.99947981 -2.839862e-05 -1.3426849e-24)
(0.99944362 -5.2942446e-05 2.2230802e-24)
(0.99939111 -8.6055428e-05 1.3846673e-24)
(0.99932417 -0.0001286122 -5.7346218e-24)
(0.99924136 -0.00018245459 -9.7996598e-24)
(0.99914124 -0.00025012556 -3.4408711e-24)
(0.99902812 -0.0003312675 1.5870473e-23)
(0.99890608 -0.0004283018 6.6401216e-24)
(0.99877233 -0.00054832527 2.5494913e-23)
(0.99862886 -0.00069529483 -3.9876355e-24)
(0.99847915 -0.00087413786 -1.5653976e-23)
(0.99832804 -0.0010901639 -1.5001965e-23)
(0.99818218 -0.0013487512 4.1089755e-24)
(0.9980505 -0.0016548861 9.2848689e-23)
(0.99794466 -0.0020123985 4.664372e-23)
(0.99787912 -0.0024229641 -6.3827348e-23)
(0.9978715 -0.0028846129 -3.4977043e-23)
(0.99794202 -0.0033903749 4.6712025e-23)
(0.99811087 -0.0039270868 1.0933061e-23)
(0.99839672 -0.0044732837 1.0049042e-22)
(0.99881325 -0.004998273 -7.529278e-23)
(0.99936424 -0.0054640323 3.9991667e-23)
(1.0000401 -0.0058293654 0)
(1.0008161 -0.0060554024 3.2645227e-22)
(1.0016529 -0.006112407 2.8535808e-22)
(1.0025011 -0.0059860028 -3.3576554e-23)
(1.0033091 -0.0056808952 1.4851709e-22)
(1.0040312 -0.0052203281 2.2318345e-23)
(1.0046353 -0.0046413151 5.6141254e-23)
(1.0051067 -0.0039878997 4.7553851e-22)
(1.0054483 -0.0033031297 -7.2248355e-22)
(1.005675 -0.0026216157 -3.284925e-24)
(1.0058128 -0.0019699803 1.9644145e-21)
(1.0058943 -0.0013500841 -6.4964229e-23)
(1.0059536 -0.00081163463 -5.8946625e-23)
(1.0060179 -0.00019770389 6.8590682e-22)
(0.99950383 -6.3787862e-06 -1.1402409e-24)
(0.99947748 -2.2082088e-05 -2.1659559e-25)
(0.99944068 -4.3337368e-05 4.7637235e-24)
(0.99938757 -7.2870739e-05 5.8522537e-24)
(0.99932011 -0.00011158062 -2.2929999e-24)
(0.99923712 -0.00016120307 4.0042142e-24)
(0.99913755 -0.00022368514 -7.0247984e-25)
(0.99901926 -0.00030215139 9.3638171e-24)
(0.99888829 -0.00039583617 0)
(0.99874946 -0.00050750156 -5.2830271e-24)
(0.99859888 -0.00064548677 0)
(0.99843901 -0.00081410062 0)
(0.9982741 -0.0010187804 -1.5579706e-23)
(0.99810999 -0.0012653023 4.2554917e-24)
(0.99795462 -0.0015593511 1.0618125e-23)
(0.9978185 -0.0019058979 3.469698e-23)
(0.99771502 -0.0023083661 -1.7434672e-23)
(0.9976612 -0.0027672363 -1.1922073e-22)
(0.99767723 -0.0032789124 -4.6359729e-23)
(0.99778434 -0.0038341957 -1.0677435e-23)
(0.99800424 -0.0044156155 -1.1317346e-22)
(0.99835562 -0.0049958326 -7.8410787e-23)