/*--------------------------------*- C++ -*----------------------------------*\
  =========                 |
  \\      /  F ield         | OpenFOAM: The Open Source CFD Toolbox
   \\    /   O peration     | Website:  https://openfoam.org
    \\  /    A nd           | Version:  8
     \\/     M anipulation  |
\*---------------------------------------------------------------------------*/
FoamFile
{
    version     2.0;
    format      ascii;
    class       volSymmTensorField;
    location    "0.966377";
    object      UPrime2Mean;
}
// * * * * * * * * * * * * * * * * * * * * * * * * * * * * * * * * * * * * * //

dimensions      [0 2 -2 0 0 0 0];

internalField   nonuniform List<symmTensor> 
9200
(
(1.8277424e-10 -1.7192283e-11 -3.4388237e-31 1.7488149e-12 3.222889e-32 4.6632768e-49)
(1.5484058e-10 -5.5067266e-11 -4.1308419e-29 2.1252556e-11 1.6740878e-29 1.4159793e-44)
(3.1966252e-10 -3.8892134e-11 0 4.8640097e-12 0 0)
(1.3671442e-10 -7.7649733e-11 1.7722402e-29 4.8047032e-11 -1.1487358e-29 3.3554192e-45)
(2.8556091e-10 -1.2909343e-10 -6.702057e-29 5.9909241e-11 3.0516205e-29 1.536248e-44)
(4.7115911e-10 -5.5160801e-11 0 6.5355549e-12 0 0)
(1.0893975e-10 -9.2229441e-11 1.6302499e-30 8.5268004e-11 -1.5850302e-30 3.5921231e-47)
(2.4986946e-10 -1.824204e-10 -8.5912578e-30 1.3699126e-10 6.1077862e-30 2.9697408e-46)
(4.2039106e-10 -1.7051626e-10 0 6.9947299e-11 0 0)
(7.0596928e-10 -8.0362152e-11 0 9.1966343e-12 0 0)
(8.0487172e-11 -9.4978928e-11 -2.3577931e-29 1.2251845e-10 3.1902814e-29 8.6991516e-45)
(1.9899016e-10 -2.1723156e-10 -2.3857138e-29 2.439843e-10 2.6018117e-29 1.4784098e-45)
(3.686722e-10 -2.374153e-10 -3.892394e-29 1.5497366e-10 2.4754421e-29 4.0166392e-45)
(6.3414496e-10 -2.4195005e-10 -3.6030347e-30 9.2773343e-11 1.4146623e-30 2.2067256e-47)
(1.006669e-09 -1.1190215e-10 9.0492877e-33 1.2470549e-11 -2.5697872e-33 2.5436629e-50)
(5.4228844e-11 -8.8337072e-11 -1.7405008e-29 1.5756021e-10 3.2635828e-29 6.762056e-45)
(1.4773516e-10 -2.2429124e-10 7.783577e-30 3.5036094e-10 -1.1650877e-29 5.8975246e-46)
(2.9696978e-10 -2.8701321e-10 -1.0776627e-28 2.8120424e-10 1.029268e-28 3.4363969e-44)
(5.584615e-10 -3.3566951e-10 -4.4665449e-29 2.0317372e-10 2.666852e-29 3.2006176e-45)
(9.0704733e-10 -3.2995185e-10 1.1936545e-29 1.2028209e-10 -4.5336402e-30 2.7005755e-46)
(1.4011381e-09 -1.5261771e-10 2.7509327e-28 1.6645396e-11 -3.295164e-29 6.9390631e-44)
(3.2418512e-11 -7.4437532e-11 -8.8484308e-30 1.8757473e-10 2.3230264e-29 2.0484816e-45)
(1.0074053e-10 -2.1003428e-10 -4.1812529e-29 4.506541e-10 8.6496836e-29 1.641096e-44)
(2.2283819e-10 -2.9949582e-10 5.7946224e-29 4.0799452e-10 -7.6960953e-29 1.314423e-44)
(4.5257131e-10 -4.0757313e-10 2.8987275e-30 3.6964537e-10 -2.6041695e-30 4.4829739e-48)
(8.014136e-10 -4.5701643e-10 -8.7047593e-29 2.6158585e-10 4.9188366e-29 1.0527549e-44)
(1.2661037e-09 -4.4318017e-10 -1.0556008e-28 1.5526462e-10 3.8542734e-29 9.557669e-45)
(1.9059849e-09 -2.0407185e-10 -2.5448316e-29 2.1867256e-11 2.8247388e-30 7.3672809e-47)
(1.611844e-11 -5.5569421e-11 2.5670031e-31 2.1105383e-10 -1.488546e-30 1.7674761e-46)
(6.1384453e-11 -1.7890493e-10 -1.6051923e-29 5.3674438e-10 4.6617108e-29 2.7796925e-45)
(1.5360668e-10 -2.8318449e-10 -4.3340645e-29 5.291449e-10 7.9109449e-29 8.6398386e-45)
(3.4209724e-10 -4.266071e-10 1.5871098e-29 5.3565785e-10 -1.9499434e-29 1.3342931e-45)
(6.5336669e-10 -5.583311e-10 1.5903258e-28 4.789134e-10 -1.3486013e-28 3.2082847e-44)
(1.122223e-09 -6.1367337e-10 8.5484223e-29 3.3624877e-10 -4.6496263e-29 6.0115067e-45)
(1.7272088e-09 -5.8577698e-10 2.2875211e-28 1.9873481e-10 -8.1750587e-29 4.1894832e-44)
(2.5439253e-09 -2.6826185e-10 -4.2092359e-28 2.8306167e-11 4.9956646e-29 1.1211568e-43)
(5.6166183e-12 -3.390133e-11 3.2163046e-30 2.2740339e-10 -2.2572961e-29 9.8814071e-46)
(3.1518343e-11 -1.3600206e-10 -1.8225606e-29 6.0435943e-10 7.8431552e-29 9.3743139e-45)
(9.4788621e-11 -2.4349506e-10 7.4569914e-30 6.339571e-10 -1.887532e-29 8.220354e-46)
(2.3801916e-10 -4.0540009e-10 -3.4386362e-29 6.951838e-10 5.8040812e-29 4.080837e-45)
(4.9763682e-10 -5.8724556e-10 4.5203235e-29 6.9549363e-10 -5.2706895e-29 8.0074846e-45)
(9.1982266e-10 -7.5413582e-10 3.3912194e-28 6.1955685e-10 -2.7617355e-28 1.1328163e-43)
(1.5362513e-09 -8.1168249e-10 -2.4485323e-28 4.2932449e-10 1.2824545e-28 7.038289e-44)
(2.3120659e-09 -7.6320044e-10 4.7600504e-28 2.5197163e-10 -1.6647241e-28 1.4533911e-43)
(3.3389571e-09 -3.4717448e-10 1.1169941e-27 3.6118724e-11 -1.3151327e-28 6.3553621e-43)
(6.2505556e-13 -1.1282874e-11 -4.2292214e-31 2.3672286e-10 9.0105165e-30 1.188191e-47)
(1.1746604e-11 -8.618066e-11 8.9144174e-30 6.5174872e-10 -6.5396061e-29 7.2847831e-45)
(4.9537707e-11 -1.8717379e-10 -8.6187296e-31 7.1679438e-10 3.1979314e-30 3.017622e-47)
(1.4874479e-10 -3.5107816e-10 -3.5330177e-29 8.341989e-10 8.2412094e-29 1.2044526e-44)
(3.4943715e-10 -5.6145062e-10 8.4191724e-30 9.0528895e-10 -1.347099e-29 4.7524017e-47)
(7.0563333e-10 -7.971659e-10 9.4801285e-29 9.0230796e-10 -1.0606847e-28 2.743574e-44)
(1.2661796e-09 -1.0035636e-09 -1.5006353e-28 7.963214e-10 1.1830824e-28 1.5066566e-44)
(2.0642912e-09 -1.0589957e-09 -3.9071654e-28 5.4360447e-10 1.9950907e-28 8.9990971e-44)
(3.0439546e-09 -9.8086595e-10 -2.5361987e-28 3.1611283e-10 8.607007e-29 2.3761243e-44)
(4.316878e-09 -4.4279272e-10 -1.108196e-28 4.5444677e-11 1.2257368e-29 1.812845e-45)
(5.2657878e-13 1.1034412e-11 -2.0865417e-31 2.3968353e-10 -4.5010518e-30 3.607842e-48)
(1.7283952e-12 -3.3675113e-11 1.6958377e-30 6.7915694e-10 -3.3435952e-29 2.3540661e-45)
(1.9078517e-11 -1.2079031e-10 -1.2248529e-29 7.7521937e-10 7.6939545e-29 5.7679632e-45)
(7.9249274e-11 -2.7278393e-10 1.7537459e-29 9.4516845e-10 -6.0052859e-29 1.7262062e-45)
(2.2097391e-10 -4.8987131e-10 -1.0991898e-28 1.0897372e-09 2.417207e-28 5.5786856e-44)
(5.0003113e-10 -7.6699402e-10 2.9386891e-28 1.1786901e-09 -4.4786335e-28 1.5376156e-43)
(9.7861341e-10 -1.0667126e-09 3.8584185e-29 1.1639637e-09 -4.1728736e-29 3.7001653e-45)
(1.7113873e-09 -1.3175684e-09 -6.6713868e-28 1.0150287e-09 5.1103138e-28 3.2023292e-43)
(2.729071e-09 -1.3636666e-09 4.5770421e-28 6.8163457e-10 -2.2771743e-28 1.1437133e-43)
(3.9482277e-09 -1.2441715e-09 -1.1304951e-27 3.9213252e-10 3.7879132e-28 4.8190164e-43)
(5.5044782e-09 -5.5698853e-10 2.2687079e-28 5.6394972e-11 -2.7242761e-29 2.9643635e-44)
(4.5516924e-12 3.178354e-11 3.6903708e-31 2.3724349e-10 2.7973018e-30 3.2059889e-47)
(4.8383519e-13 1.808789e-11 1.4177389e-30 6.8833053e-10 5.0200967e-29 5.2518311e-45)
(3.1543657e-12 -5.0160998e-11 1.3436338e-30 8.0935859e-10 -2.1474553e-29 5.5115234e-47)
(3.1672664e-11 -1.795548e-10 0 1.0245916e-09 0 0)
(1.1977885e-10 -3.8453861e-10 1.4095884e-30 1.2387002e-09 -4.4794102e-30 3.1557807e-47)
(3.2002623e-10 -6.7449636e-10 -6.5925398e-29 1.4241618e-09 1.3785561e-28 2.2506578e-44)
(7.0012729e-10 -1.0334617e-09 7.9325495e-29 1.5270421e-09 -1.1648821e-28 7.8822342e-45)
(1.3331571e-09 -1.4089063e-09 2.9744794e-28 1.4898207e-09 -3.1291798e-28 6.804346e-44)
(2.2768032e-09 -1.7076789e-09 -1.6930859e-28 1.2812926e-09 1.2604176e-28 6.8387152e-44)
(3.5557359e-09 -1.7338619e-09 6.7753607e-28 8.4563871e-10 -3.2921031e-28 1.9340962e-43)
(5.0516753e-09 -1.5582109e-09 5.9940803e-28 4.8074459e-10 -1.9806999e-28 1.3010943e-43)
(6.9287902e-09 -6.9141938e-10 -1.7878227e-28 6.9040309e-11 1.982768e-29 5.5079346e-45)
(1.1719847e-11 5.0051973e-11 1.2873591e-31 2.3034545e-10 6.088968e-31 9.1892879e-49)
(6.6636696e-12 6.6581906e-11 -2.8104581e-30 6.8184713e-10 -2.7585389e-29 1.1610972e-45)
(4.9027449e-13 1.9969352e-11 0 8.2110781e-10 0 0)
(5.9374727e-12 -7.9528211e-11 0 1.0722904e-09 0 0)
(4.9407811e-11 -2.5756246e-10 1.6501846e-29 1.3471094e-09 -8.5542128e-29 4.3160961e-45)
(1.7654411e-10 -5.3516012e-10 -1.0134754e-28 1.6250721e-09 3.0526995e-28 6.8636469e-44)
(4.5378479e-10 -9.1659648e-10 2.0521108e-28 1.8532142e-09 -4.1234455e-28 9.8689277e-44)
(9.6346908e-10 -1.3752374e-09 -2.4194653e-28 1.9640692e-09 3.4401722e-28 4.1292742e-44)
(1.7885782e-09 -1.8379502e-09 -1.8170887e-29 1.8892883e-09 1.8639086e-29 4.0748105e-48)
(2.9865612e-09 -2.1859416e-09 2.1597081e-30 1.6002918e-09 -1.5696777e-30 1.1985802e-47)
(4.5713928e-09 -2.1774917e-09 -1.1124968e-27 1.0373202e-09 5.2803419e-28 5.2332854e-43)
(6.3818999e-09 -1.9274896e-09 1.5937854e-27 5.8231215e-10 -5.2459789e-28 1.136517e-42)
(8.6161762e-09 -8.4741165e-10 -3.0932458e-27 8.3399295e-11 3.6156769e-28 3.6721731e-42)
(2.1198376e-11 6.5652446e-11 -2.4970636e-30 2.1996129e-10 -8.6621124e-30 2.9432294e-46)
(1.8778978e-11 1.1011114e-10 6.1868374e-31 6.6246875e-10 3.5891164e-30 1.7422794e-47)
(9.1977537e-12 8.5990802e-11 -5.4807991e-30 8.1343548e-10 -5.0729653e-29 2.271488e-45)
(3.8913317e-13 2.0534192e-11 1.6230287e-30 1.0904651e-09 8.2583634e-29 4.7716143e-45)
(1.0223378e-11 -1.2004742e-10 9.7165913e-30 1.4142162e-09 -1.1379753e-28 7.3078281e-45)
(7.5174089e-11 -3.6488568e-10 -1.9845341e-29 1.7740869e-09 9.5816489e-29 5.9043756e-45)
(2.5497937e-10 -7.3560025e-10 -2.2380642e-29 2.1241122e-09 6.4345277e-29 7.0028717e-46)
(6.3288486e-10 -1.2309686e-09 8.5334874e-30 2.3954875e-09 -1.6516844e-29 2.0940471e-46)
(1.3066257e-09 -1.8085642e-09 -1.8408183e-28 2.5040715e-09 2.5430136e-28 1.4326739e-45)
(2.3673117e-09 -2.3691582e-09 -2.4024607e-28 2.3714205e-09 2.4015176e-28 5.1133839e-47)
(3.8673664e-09 -2.7644929e-09 -2.5925933e-28 1.9763767e-09 1.8479076e-28 2.075934e-44)
(5.8046179e-09 -2.7018219e-09 -8.50926e-28 1.2576705e-09 3.9496955e-28 1.7706486e-43)
(7.9665208e-09 -2.3556168e-09 -7.2200569e-28 6.9676268e-10 2.283702e-28 1.1619528e-43)
(1.0591319e-08 -1.0258445e-09 9.9076922e-28 9.9428219e-11 -1.1496622e-28 3.4521606e-43)
(3.2243763e-11 7.8470303e-11 7.2825344e-30 2.0707446e-10 1.9933693e-29 3.3064287e-45)
(3.5358161e-11 1.4766534e-10 2.3990619e-29 6.3304003e-10 9.9173255e-29 1.393725e-44)
(2.7095548e-11 1.4541514e-10 2.1941581e-30 7.8983287e-10 1.1473465e-29 2.8298014e-46)
(1.2381429e-11 1.1543173e-10 -1.1521576e-30 1.0828176e-09 -1.0559116e-29 9.9900184e-47)
(2.4202862e-13 1.8618282e-11 1.7545871e-31 1.4424452e-09 1.2875504e-29 1.2324147e-46)
(1.7079005e-11 -1.7854431e-10 1.1991613e-29 1.8694503e-09 -1.2505666e-28 8.8834207e-45)
(1.121776e-10 -5.1093476e-10 -1.2096294e-29 2.3291592e-09 5.4953907e-29 2.7198394e-46)
(3.6257641e-10 -1.000023e-09 3.5336531e-29 2.7594949e-09 -9.7214733e-29 7.5978811e-46)
(8.7061869e-10 -1.6348975e-09 -6.9717173e-29 3.0709479e-09 1.3040361e-28 1.1277534e-44)
(1.7494428e-09 -2.3515472e-09 4.1206735e-30 3.1613841e-09 -5.5986181e-30 5.4461223e-46)
(3.0949838e-09 -3.018573e-09 1.4179226e-29 2.9443222e-09 -1.3795868e-29 5.6651694e-47)
(4.9482238e-09 -3.4550643e-09 -6.5661077e-29 2.4126465e-09 4.5329361e-29 3.5006032e-44)
(7.2847814e-09 -3.3130227e-09 1.5426208e-27 1.50677e-09 -6.9921317e-28 6.8137398e-43)
(9.8322679e-09 -2.8449861e-09 -9.3726347e-28 8.2351366e-10 2.9748234e-28 3.1062186e-43)
(1.2876133e-08 -1.2270377e-09 7.8424256e-28 1.1701273e-10 -9.4027971e-29 3.0833573e-43)
(4.4211412e-11 8.8535757e-11 3.1747729e-30 1.9256225e-10 7.2208181e-30 8.2382844e-47)
(5.5037863e-11 1.7879588e-10 -1.1227476e-29 5.9634583e-10 -3.6544644e-29 1.330392e-45)
(5.198042e-11 1.9676969e-10 1.3760841e-29 7.5390163e-10 5.1510065e-29 2.7063853e-45)
(3.8765213e-11 2.0150357e-10 -1.4773253e-29 1.0538225e-09 -7.595794e-29 3.6078502e-45)
(1.594247e-11 1.5107639e-10 1.1627983e-29 1.4363087e-09 1.0896528e-28 5.5356671e-45)
(6.4059869e-14 1.1042044e-11 -1.1309332e-30 1.9136298e-09 -1.8551207e-28 7.1314052e-45)
(2.790479e-11 -2.6216434e-10 -4.9492529e-29 2.4649243e-09 4.6420637e-28 6.7890304e-44)
(1.6499491e-10 -7.0818412e-10 1.0155378e-29 3.0409586e-09 -4.345372e-29 7.7722847e-46)
(5.0908833e-10 -1.3455625e-09 5.0207987e-29 3.5573155e-09 -1.3239439e-28 2.257391e-45)
(1.1834613e-09 -2.1483145e-09 -2.4780242e-28 3.9003484e-09 4.483601e-28 1.1897708e-43)
(2.3153577e-09 -3.0239176e-09 1.3354386e-27 3.9496404e-09 -1.7405919e-27 4.7322538e-43)
(4.000394e-09 -3.8024634e-09 -8.6253161e-28 3.6144949e-09 8.1752928e-28 4.0302114e-43)
(6.260056e-09 -4.2684102e-09 -5.1487215e-28 2.9105223e-09 3.5014246e-28 6.6838357e-44)
(9.0412489e-09 -4.015682e-09 -1.8714377e-28 1.7836009e-09 8.310232e-29 9.6857054e-48)
(1.2003964e-08 -3.3964719e-09 -1.8246328e-29 9.6141973e-10 -2.5553102e-30 2.3592982e-44)
(1.5488693e-08 -1.4506563e-09 -9.8931581e-28 1.3596316e-10 1.1744764e-28 4.5303295e-43)
(5.657208e-11 9.6003015e-11 0 1.7715466e-10 0 0)
(7.6638029e-11 2.035083e-10 -2.320272e-29 5.5487058e-10 -6.1178546e-29 5.1939068e-45)
(8.1790574e-11 2.393778e-10 -7.2562593e-30 7.0906866e-10 -2.0669627e-29 9.1592936e-46)
(7.6273654e-11 2.7647011e-10 0 1.0081695e-09 0 0)
(5.2967963e-11 2.720298e-10 0 1.4014641e-09 0 0)
(1.9641733e-11 1.9361671e-10 0 1.9119851e-09 0 0)
(1.7430501e-14 -6.5254414e-12 1.069907e-31 2.5335665e-09 -5.0991897e-29 1.133533e-45)
(4.4840576e-11 -3.807269e-10 -2.0497175e-29 3.2337908e-09 1.7382003e-28 1.3620416e-45)
(2.3990276e-10 -9.7233685e-10 1.7714539e-28 3.9417798e-09 -7.1633354e-28 1.7030834e-43)
(7.0708506e-10 -1.7926857e-09 -1.6791474e-28 4.5455783e-09 4.2501188e-28 1.1329685e-44)
(1.5915871e-09 -2.7937885e-09 1.0717711e-28 4.9044078e-09 -1.8759311e-28 1.9310485e-44)
(3.0316549e-09 -3.8466338e-09 -3.4030032e-28 4.8808872e-09 4.3113927e-28 1.5548963e-44)
(5.1153057e-09 -4.7366834e-09 1.0655136e-28 4.3861775e-09 -9.8295108e-29 1.1450502e-44)
(7.8350921e-09 -5.2136971e-09 6.9402798e-28 3.4694133e-09 -4.6075802e-28 7.8072119e-44)
(1.1102423e-08 -4.8123395e-09 1.4852411e-28 2.0859221e-09 -6.4574495e-29 3.0889714e-45)
(1.4503469e-08 -4.0091577e-09 5.7299781e-28 1.1087451e-09 -1.7528843e-28 1.0365106e-43)
(1.8442208e-08 -1.6956365e-09 0 1.5601364e-10 0 0)
(6.8910544e-11 1.0110326e-10 1.0736171e-29 1.6144668e-10 1.7855084e-29 1.7654002e-45)
(9.918133e-11 2.221098e-10 2.7391249e-29 5.1071545e-10 6.1504199e-29 4.0648423e-45)
(1.1470958e-10 2.7317866e-10 -7.3811591e-29 6.5840383e-10 -1.7393745e-28 3.1120741e-44)
(1.2179158e-10 3.3920578e-10 -5.5148694e-29 9.5036886e-10 -1.5169793e-28 1.8997199e-44)
(1.0668089e-10 3.7806976e-10 -5.4058577e-29 1.343965e-09 -1.8973801e-28 1.9220764e-44)
(6.9985129e-11 3.6161355e-10 0 1.8715648e-09 0 0)
(2.304712e-11 2.4188285e-10 -4.221532e-29 2.5412314e-09 -4.3874822e-28 6.2065058e-44)
(4.9049653e-13 -4.045459e-11 -2.5823819e-30 3.3392299e-09 2.2044571e-28 1.5321037e-44)
(7.1079143e-11 -5.4726219e-10 -1.3770909e-28 4.2142107e-09 1.0595407e-27 1.7752902e-43)
(3.453966e-10 -1.3228949e-09 2.9962104e-28 5.0672673e-09 -1.1455329e-27 3.5791146e-43)
(9.7259933e-10 -2.3654704e-09 1.2352636e-28 5.7533953e-09 -3.0008551e-28 2.6880484e-45)
(2.1193871e-09 -3.5963478e-09 1.5805452e-28 6.1027514e-09 -2.6746899e-28 3.8110777e-44)
(3.9296335e-09 -4.8413149e-09 -1.1941277e-27 5.9646011e-09 1.4686061e-27 3.8097965e-43)
(6.4741181e-09 -5.8359197e-09 2.1245727e-27 5.2606727e-09 -1.9124613e-27 4.4150553e-43)
(9.7060442e-09 -6.2977903e-09 5.5730884e-28 4.0863717e-09 -3.6218658e-28 3.3233634e-44)
(1.3494711e-08 -5.7030602e-09 4.3446885e-27 2.4102022e-09 -1.8264311e-27 4.6850356e-42)
(1.7348617e-08 -4.6801295e-09 1.7650194e-27 1.2631728e-09 -5.2133972e-28 6.8359768e-43)
(2.1744099e-08 -1.9601436e-09 1.3359599e-27 1.7682631e-10 -1.6358733e-28 1.1378351e-42)
(8.0915608e-11 1.0410971e-10 -8.1343661e-31 1.4589699e-10 -1.1965428e-30 5.4335487e-48)
(1.2188894e-10 2.3510297e-10 2.2885814e-29 4.6559202e-10 4.3895732e-29 2.7610758e-45)
(1.4920609e-10 2.985533e-10 3.254874e-30 6.045382e-10 6.6401833e-30 2.0927064e-48)
(1.7251867e-10 3.8948276e-10 -5.8182018e-29 8.8449291e-10 -1.299741e-28 1.2393697e-44)
(1.7257451e-10 4.6739846e-10 9.7836198e-30 1.2697149e-09 2.624405e-29 3.9133268e-46)
(1.4472423e-10 5.1000422e-10 7.7357474e-30 1.8001175e-09 2.6598664e-29 2.0128533e-45)
(8.9467433e-11 4.723917e-10 1.2709713e-28 2.4965403e-09 6.6527964e-28 1.7868222e-43)
(2.5628166e-11 2.9352021e-10 1.0581116e-28 3.3639653e-09 1.2012365e-27 3.4732821e-43)
(2.2881697e-12 -1.0001787e-10 -1.3038534e-29 4.3739533e-09 5.7810569e-28 6.763975e-44)
(1.1129431e-10 -7.7875155e-10 2.528575e-29 5.4493588e-09 -1.7680202e-28 2.1178134e-45)
(4.9287152e-10 -1.783746e-09 -9.1367662e-29 6.4557604e-09 3.3016763e-28 2.4959547e-44)
(1.3258337e-09 -3.0917483e-09 4.7339021e-28 7.2098682e-09 -1.1028521e-27 4.8161349e-44)
(2.7959635e-09 -4.5831137e-09 -6.988487e-28 7.5126637e-09 1.1434345e-27 2.8071899e-43)
(5.0446378e-09 -6.0294831e-09 5.3092871e-29 7.2066285e-09 -6.2928669e-29 1.8842305e-44)
(8.1134814e-09 -7.1128903e-09 -5.7584329e-29 6.2357078e-09 5.1340839e-29 4.4595092e-44)
(1.190516e-08 -7.5245109e-09 -7.7701905e-28 4.7557885e-09 4.8973585e-28 9.6199454e-44)
(1.6241413e-08 -6.685064e-09 1.6391316e-27 2.7516148e-09 -6.7028714e-28 6.7676755e-43)
(2.0552212e-08 -5.4043421e-09 5.1237101e-29 1.4218482e-09 -5.6476105e-30 2.0057163e-44)
(2.5395284e-08 -2.2415648e-09 9.2917769e-28 1.9799981e-10 -1.3171375e-28 1.4057973e-42)
(9.2362007e-11 1.0530852e-10 -7.014237e-30 1.3084968e-10 -9.1541205e-30 3.5747583e-46)
(1.4416879e-10 2.4309671e-10 -2.4554877e-29 4.208315e-10 -4.1329102e-29 2.2575639e-45)
(1.8404744e-10 3.1617663e-10 1.6265749e-28 5.4961709e-10 2.7695877e-28 7.8162538e-44)
(2.2606139e-10 4.2773205e-10 4.2361491e-29 8.1403795e-10 7.9176283e-29 5.6688937e-45)
(2.465339e-10 5.3949958e-10 -1.4050584e-29 1.1841077e-09 -3.0657543e-29 1.6828305e-46)
(2.375391e-10 6.3596967e-10 7.8685002e-30 1.7053455e-09 2.0712988e-29 6.4897865e-46)
(1.9077551e-10 6.7767193e-10 -2.6292661e-29 2.4092999e-09 -9.2755123e-29 2.6789658e-45)
(1.1085477e-10 6.0634273e-10 -3.4700684e-29 3.3182805e-09 -1.8926033e-28 1.5294717e-45)
(2.6717517e-11 3.4385501e-10 1.9390884e-29 4.4277213e-09 2.4756162e-28 1.1097689e-44)
(6.909362e-12 -1.982259e-10 -6.2790544e-29 5.687846e-09 1.813317e-27 4.0051761e-43)
(1.7223645e-10 -1.0970014e-09 1.3431902e-28 6.9870451e-09 -8.5531905e-28 5.9288287e-45)
(6.9741057e-10 -2.3836829e-09 4.9745438e-29 8.1472666e-09 -1.6958052e-28 2.0319448e-44)
(1.7919348e-09 -4.0030766e-09 -1.6464146e-28 8.942675e-09 3.6793076e-28 1.2435122e-45)
(3.6555381e-09 -5.7827001e-09 1.7667322e-29 9.1476786e-09 -2.7999064e-29 1.3102134e-46)
(6.4158381e-09 -7.4316058e-09 1.3265042e-28 8.6082021e-09 -1.5261951e-28 5.7050073e-44)
(1.0071585e-08 -8.577476e-09 -2.7991684e-27 7.3050268e-09 2.3799704e-27 9.7761702e-43)
(1.4463161e-08 -8.8940038e-09 6.1851533e-28 5.4693001e-09 -3.7674942e-28 5.1266592e-43)
(1.9361585e-08 -7.7524582e-09 -3.157889e-27 3.1041191e-09 1.2562e-27 1.7002398e-42)
(2.4121142e-08 -6.1745883e-09 -8.02506e-28 1.5814629e-09 2.2669943e-28 1.3588046e-43)
(2.9389672e-08 -2.5365444e-09 -8.7355636e-28 2.190831e-10 1.3360051e-28 1.8238207e-42)
(1.0310219e-10 1.0498462e-10 -3.4038764e-30 1.1654647e-10 -3.8999239e-30 1.4127196e-46)
(1.6559076e-10 2.4674739e-10 -4.8816589e-29 3.7743906e-10 -7.2290422e-29 8.1725814e-45)
(2.1828128e-10 3.2689528e-10 -4.6071326e-29 4.9532923e-10 -6.7766332e-29 7.9143405e-45)
(2.8045499e-10 4.5482788e-10 -6.7000056e-29 7.4187629e-10 -1.0756884e-28 9.1494756e-45)
(3.2499681e-10 5.9481523e-10 3.9520441e-29 1.0918211e-09 7.1437141e-29 4.6301097e-45)
(3.4257497e-10 7.3849284e-10 7.4663111e-29 1.5943928e-09 1.5981167e-28 9.6959546e-45)
(3.1835001e-10 8.533801e-10 -2.6155914e-28 2.2894903e-09 -6.9667601e-28 1.4642193e-43)
(2.4513591e-10 8.8745845e-10 -5.0946948e-28 3.2143917e-09 -1.8340433e-27 7.6353243e-43)
(1.3306212e-10 7.6393524e-10 -1.1902966e-29 4.3873713e-09 -6.6749111e-29 1.7357301e-44)
(2.5626945e-11 3.8505741e-10 0 5.7885336e-09 0 0)
(1.6977308e-11 -3.5292473e-10 -2.2937651e-29 7.3378053e-09 4.776825e-28 1.1664822e-46)
(2.6348967e-10 -1.5295436e-09 2.4375183e-28 8.8789501e-09 -1.41405e-27 2.7471377e-43)
(9.7873309e-10 -3.1568151e-09 6.213372e-28 1.0182045e-08 -2.0028855e-27 1.8398538e-43)
(2.4017797e-09 -5.1344696e-09 -1.1236291e-27 1.0976373e-08 2.3990527e-27 6.6699914e-43)
(4.7377622e-09 -7.2243676e-09 5.318385e-28 1.1016091e-08 -8.1119917e-28 5.3681134e-46)
(8.0858977e-09 -9.0660381e-09 -2.1577403e-27 1.016502e-08 2.4173846e-27 3.433133e-43)
(1.2387119e-08 -1.0235715e-08 -1.2107684e-28 8.4580091e-09 1.0245816e-28 1.8398505e-43)
(1.7408042e-08 -1.0402192e-08 1.1344076e-27 6.2158493e-09 -6.7397454e-28 4.6505685e-43)
(2.2868983e-08 -8.896092e-09 -1.8402781e-27 3.4606128e-09 7.0736167e-28 1.2853899e-42)
(2.8055674e-08 -6.9815735e-09 -3.7615806e-28 1.7383718e-09 9.2973312e-29 2.6191892e-46)
(3.3713937e-08 -2.8410554e-09 -3.5131728e-28 2.395926e-10 9.3336161e-29 2.0985122e-42)
(1.1304357e-10 1.0340358e-10 4.1409184e-30 1.0314905e-10 4.532829e-30 2.2228822e-48)
(1.8585633e-10 2.4670057e-10 -4.4425288e-29 3.3611839e-10 -5.8575106e-29 5.5903634e-45)
(2.5120905e-10 3.316342e-10 -8.938897e-29 4.4293405e-10 -1.1695907e-28 1.5618664e-44)
(3.3415926e-10 4.7191365e-10 1.1733529e-28 6.7026618e-10 1.6429778e-28 1.9674919e-44)
(4.0500725e-10 6.3444886e-10 1.4146164e-28 9.9673277e-10 2.1968991e-28 2.9001373e-44)
(4.5468995e-10 8.1792954e-10 7.2965589e-30 1.473538e-09 1.2850353e-29 4.113242e-46)
(4.6406223e-10 9.9766467e-10 0 2.1465408e-09 0 0)
(4.1698767e-10 1.1302775e-09 5.7566574e-29 3.0650921e-09 1.5451969e-28 1.8434717e-44)
(3.0739078e-10 1.1452103e-09 2.001918e-28 4.2678105e-09 7.4199843e-28 1.1640932e-43)
(1.5443125e-10 9.4339606e-10 2.4144205e-28 5.7644652e-09 1.4697452e-27 1.5429575e-43)
(2.1842528e-11 4.0491771e-10 -1.6339317e-29 7.5114264e-09 -2.9978891e-28 3.077932e-44)
(3.6841419e-11 -5.8802288e-10 5.1219803e-29 9.3871805e-09 -8.1916419e-28 6.1276288e-44)
(3.9844683e-10 -2.1105283e-09 -6.035617e-29 1.1179409e-08 3.1945648e-28 1.1804527e-44)
(1.362263e-09 -4.1427885e-09 -1.8460267e-28 1.2598781e-08 5.6177033e-28 5.6581427e-47)
(3.1927432e-09 -6.5238343e-09 8.7878161e-28 1.3330466e-08 -1.7944222e-27 1.8682441e-43)
(6.0878296e-09 -8.9369046e-09 -1.2019009e-27 1.3119443e-08 1.7627513e-27 2.4547817e-43)
(1.0100579e-08 -1.0947926e-08 3.4001029e-28 1.1866468e-08 -3.6838833e-28 4.8519762e-45)
(1.5098135e-08 -1.20888e-08 -2.645086e-27 9.6793911e-09 2.1149518e-27 5.2219359e-43)
(2.0763841e-08 -1.2040343e-08 -9.554244e-28 6.9818762e-09 5.5612064e-28 6.6731073e-44)
(2.6771089e-08 -1.0103574e-08 -2.4607981e-28 3.8131777e-09 9.348927e-29 4.1049867e-45)
(3.2348954e-08 -7.8141033e-09 -6.6231055e-28 1.8887416e-09 2.0493786e-28 6.023453e-43)
(3.834758e-08 -3.1505124e-09 0 2.5903268e-10 0 0)
(1.2214652e-10 1.008103e-10 -3.0376808e-30 9.0749553e-11 -2.7033078e-30 2.0482869e-46)
(2.0477919e-10 2.435787e-10 2.7495359e-29 2.9735135e-10 3.2429209e-29 1.8577824e-45)
(2.8234515e-10 3.3132981e-10 7.5641446e-30 3.933307e-10 8.6984427e-30 1.7133386e-46)
(3.8601278e-10 4.8026129e-10 1.7337807e-28 6.0090455e-10 2.1349428e-28 4.2984437e-44)
(4.8422133e-10 6.5991844e-10 1.4437238e-28 9.019211e-10 1.9491315e-28 2.7343465e-44)
(5.6957139e-10 8.7561097e-10 -9.3419157e-29 1.3480497e-09 -1.4265669e-28 8.1808743e-45)
(6.2066885e-10 1.1106198e-09 -6.9797939e-29 1.9888715e-09 -1.2363052e-28 1.2221169e-44)
(6.1536687e-10 1.331607e-09 -3.9291139e-28 2.8827371e-09 -8.463337e-28 1.3786008e-43)
(5.3474891e-10 1.4778328e-09 -8.4355384e-29 4.0852034e-09 -2.3244802e-28 3.9321393e-45)
(3.7623926e-10 1.4557092e-09 -4.7331946e-29 5.6333515e-09 -1.8243678e-28 4.2630242e-45)
(1.7266599e-10 1.1394753e-09 1.0188821e-29 7.5212911e-09 6.6976411e-29 5.108355e-46)
(1.5380253e-11 3.8539588e-10 8.1343896e-29 9.670643e-09 2.0262113e-27 3.44099e-43)
(7.3427264e-11 -9.3484113e-10 9.6829754e-30 1.1904974e-08 -1.236322e-28 1.0630579e-47)
(5.9550631e-10 -2.881528e-09 4.6568466e-28 1.3943683e-08 -2.249839e-27 9.2211738e-43)
(1.8803028e-09 -5.3867241e-09 -5.2452145e-28 1.5432355e-08 1.5050008e-27 8.571204e-45)
(4.209374e-09 -8.2110605e-09 -1.3702963e-27 1.6017309e-08 2.673925e-27 7.5916393e-44)
(7.7562647e-09 -1.0947212e-08 -6.1486543e-30 1.5451212e-08 7.3594152e-30 3.7421192e-44)
(1.2507784e-08 -1.3087944e-08 4.6499203e-27 1.3695271e-08 -4.8634211e-27 1.0608037e-42)
(1.8240754e-08 -1.4132304e-08 2.0154587e-28 1.0949449e-08 -1.5502819e-28 3.04051e-44)
(2.4549367e-08 -1.3794832e-08 -1.7732263e-27 7.7517011e-09 9.9210892e-28 3.7431122e-43)
(3.1068297e-08 -1.1359433e-08 0 4.1533785e-09 0 0)
(3.6986785e-08 -8.6593764e-09 9.7233019e-28 2.0287163e-09 -3.3926635e-28 3.7665326e-42)
(4.3263282e-08 -3.4599135e-09 2.9794385e-28 2.7691741e-10 -2.3043869e-29 3.6972982e-46)
(1.3041102e-10 9.7430298e-11 -2.4996853e-29 7.9399015e-11 -2.1314642e-29 2.5308531e-45)
(2.2224944e-10 2.3795093e-10 5.093183e-29 2.6142999e-10 5.450976e-29 3.4527223e-45)
(3.1138414e-10 3.2687801e-10 -9.5205633e-29 3.4710067e-10 -9.9128281e-29 1.2286224e-44)
(4.3519111e-10 4.8117182e-10 -4.6143618e-29 5.3499636e-10 -5.0716238e-29 1.6452761e-45)
(5.6085947e-10 6.7295641e-10 2.1396158e-28 8.0972245e-10 2.5477376e-28 3.9327303e-44)
(6.8376216e-10 9.1349633e-10 0 1.2221621e-09 0 0)
(7.8201945e-10 1.1937579e-09 -2.175409e-29 1.8236505e-09 -3.2901731e-29 7.7746928e-46)
(8.3026896e-10 1.4909769e-09 -8.7253516e-29 2.6785631e-09 -1.5632225e-28 1.5306198e-45)
(8.0042384e-10 1.7565152e-09 -4.1340186e-28 3.8555697e-09 -9.0368927e-28 1.2424073e-43)
(6.7202044e-10 1.9075046e-09 -7.2984147e-28 5.4152481e-09 -2.0641596e-27 5.8147071e-43)
(4.4918858e-10 1.8215438e-09 1.5554535e-28 7.3877196e-09 6.2961922e-28 8.2055562e-45)
(1.8489088e-10 1.3419101e-09 1.8679158e-28 9.7415405e-09 1.3519397e-27 9.0645847e-44)
(7.3677731e-12 3.0091019e-10 -4.991043e-29 1.2349463e-08 -2.0288525e-27 1.5129777e-43)
(1.3736767e-10 -1.4335228e-09 -1.453306e-28 1.4964476e-08 1.5210142e-27 1.0533042e-44)
(8.7950602e-10 -3.8921568e-09 8.1276151e-28 1.7225663e-08 -3.6003238e-27 1.4314768e-43)
(2.5732692e-09 -6.938792e-09 1.6479124e-27 1.8711233e-08 -4.4503729e-27 1.341241e-45)
(5.50393e-09 -1.0236746e-08 -1.7666712e-27 1.903999e-08 3.2814466e-27 1.2388034e-42)
(9.7986546e-09 -1.3278837e-08 1.6898633e-27 1.7995667e-08 -2.2906198e-27 1.009173e-43)
(1.5356242e-08 -1.5490829e-08 -6.8139556e-27 1.5627089e-08 6.8676959e-27 3.5321782e-42)
(2.1847729e-08 -1.6355531e-08 1.6897439e-27 1.22444e-08 -1.2558409e-27 1.6201527e-42)
(2.8777018e-08 -1.5647096e-08 3.849796e-27 8.5080436e-09 -2.0793581e-27 2.8227474e-42)
(3.5753336e-08 -1.2645467e-08 -1.475204e-27 4.4726233e-09 4.9744274e-28 4.2264313e-42)
(4.1947694e-08 -9.5033802e-09 -8.1995057e-28 2.1545972e-09 9.3414797e-29 2.7192688e-42)
(4.8427548e-08 -3.7640138e-09 2.6779928e-28 2.9279333e-10 -2.0220923e-29 2.274165e-46)
(1.378675e-10 9.3458585e-11 1.2769132e-29 6.9104475e-11 9.6532086e-30 1.5626058e-45)
(2.3820557e-10 2.303117e-10 6.1789967e-29 2.2848054e-10 5.9271067e-29 6.0836634e-45)
(3.3815806e-10 3.1910747e-10 6.2761945e-29 3.0457863e-10 5.8195395e-29 8.1971838e-45)
(4.8114435e-10 4.7590234e-10 4.094823e-28 4.7333708e-10 4.0109449e-28 1.718983e-43)
(6.3364503e-10 6.7536157e-10 -1.1642522e-28 7.2181912e-10 -1.2328139e-28 8.4772648e-45)
(7.946116e-10 9.3389381e-10 3.4494896e-28 1.0991311e-09 4.0289775e-28 6.9643106e-44)
(9.4311969e-10 1.2495366e-09 -2.6283617e-29 1.6567209e-09 -3.4522797e-29 8.1685133e-46)
(1.0530752e-09 1.6099548e-09 5.8161338e-28 2.4622946e-09 8.8539438e-28 1.5612511e-43)
(1.0908324e-09 1.9797302e-09 -1.5803034e-29 3.5937865e-09 -2.8949005e-29 7.9639337e-46)
(1.0225362e-09 2.2903101e-09 -2.7252127e-28 5.1306457e-09 -6.0861332e-28 3.5658036e-44)
(8.2776663e-10 2.4301241e-09 -6.3596839e-30 7.135036e-09 -1.7896826e-29 1.0390866e-44)
(5.2229143e-10 2.2416383e-09 -6.5945866e-28 9.6221062e-09 -2.8235194e-27 4.7533023e-43)
(1.8786117e-10 1.5334963e-09 7.2211083e-29 1.2521447e-08 5.8826679e-28 2.5588138e-46)
(9.2958974e-13 1.1638696e-10 2.586851e-30 1.5639452e-08 3.3856053e-28 5.8641028e-45)
(2.4448266e-10 -2.1344118e-09 1.0362974e-29 1.8641196e-08 -9.641641e-29 1.4673788e-43)
(1.2833734e-09 -5.2003668e-09 2.0600744e-28 2.1074963e-08 -8.3543491e-28 1.4867347e-44)
(3.4908878e-09 -8.8532924e-09 -2.9930513e-28 2.2454598e-08 7.5872408e-28 3.3371319e-44)
(7.1365727e-09 -1.2640453e-08 2.3205163e-27 2.2390329e-08 -4.1138225e-27 1.4839158e-43)
(1.2275112e-08 -1.5950402e-08 0 2.0727161e-08 0 0)
(1.8694064e-08 -1.8154093e-08 7.598562e-28 1.7630554e-08 -7.3878748e-28 1.1314317e-45)
(2.5946879e-08 -1.8741059e-08 2.720883e-28 1.3537061e-08 -1.9658377e-28 7.177899e-46)
(3.3451712e-08 -1.7573854e-08 -5.3725409e-28 9.2326912e-09 2.8159884e-28 8.3367831e-45)
(4.0810956e-08 -1.3941219e-08 -7.7118114e-28 4.7625387e-09 2.6728492e-28 6.9455797e-44)
(4.7203257e-08 -1.0331361e-08 7.8181841e-28 2.2630184e-09 -4.2951442e-29 5.3619814e-42)
(5.3801804e-08 -4.0575073e-09 2.3636444e-27 3.062588e-10 -1.1662205e-28 1.8992338e-42)
(1.4457069e-10 8.9062651e-11 1.6539798e-29 5.9838743e-11 1.1220738e-29 9.3233479e-46)
(2.5263402e-10 2.2111442e-10 -4.8628986e-29 1.9854665e-10 -4.2052429e-29 4.0878827e-45)
(3.6260983e-10 3.0876166e-10 -4.6764199e-29 2.6590097e-10 -3.9339381e-29 3.0245158e-45)
(5.2355076e-10 4.656217e-10 -5.0868798e-29 4.1638863e-10 -4.4792042e-29 2.4229321e-45)
(7.0172634e-10 6.6889205e-10 -5.0186855e-28 6.3934117e-10 -4.7462078e-28 1.7108292e-43)
(9.0019392e-10 9.3924279e-10 -1.0003193e-28 9.8133864e-10 -1.0351387e-28 7.4830964e-45)
(1.100097e-09 1.2809679e-09 -3.3879019e-29 1.4926427e-09 -3.9124906e-29 1.0430452e-45)
(1.2766905e-09 1.6915158e-09 -3.7500079e-29 2.2419828e-09 -4.9488081e-29 4.6688738e-46)
(1.394076e-09 2.1488464e-09 -6.0171851e-28 3.3129684e-09 -9.2433528e-28 1.2023095e-43)
(1.4096357e-09 2.6007719e-09 -1.5200157e-28 4.7990384e-09 -2.7914308e-28 2.1757609e-44)
(1.283721e-09 2.9520167e-09 -3.7545539e-28 6.7890185e-09 -8.6153669e-28 4.0258618e-44)
(9.98992e-10 3.0546356e-09 1.2732821e-28 9.3410057e-09 3.8844626e-28 9.8187321e-45)
(5.8995797e-10 2.7092962e-09 4.1285108e-28 1.2443606e-08 1.891969e-27 1.5989526e-43)
(1.7845536e-10 1.6877739e-09 4.6398217e-30 1.5969871e-08 4.3844701e-29 6.4458366e-45)
(2.4656943e-12 -2.1480227e-10 -1.75926e-29 1.9638987e-08 1.6371503e-27 1.109337e-43)
(4.1760573e-10 -3.0991732e-09 1.573304e-30 2.301008e-08 2.9010242e-31 4.4930297e-43)
(1.8499036e-09 -6.8721898e-09 7.3238885e-28 2.5533625e-08 -2.7035003e-27 3.4285984e-42)
(4.6931989e-09 -1.1187147e-08 -2.6284082e-27 2.6669504e-08 6.2756177e-27 1.5878727e-43)
(9.1751124e-09 -1.5458584e-08 -6.1582824e-27 2.6047351e-08 1.0388182e-26 8.0359543e-43)