/*--------------------------------*- C++ -*----------------------------------*\
  =========                 |
  \\      /  F ield         | OpenFOAM: The Open Source CFD Toolbox
   \\    /   O peration     | Website:  https://openfoam.org
    \\  /    A nd           | Version:  8
     \\/     M anipulation  |
\*---------------------------------------------------------------------------*/
FoamFile
{
    version     2.0;
    format      ascii;
    class       volScalarField;
    location    "200.966377299857271";
    object      k;
}
// * * * * * * * * * * * * * * * * * * * * * * * * * * * * * * * * * * * * * //

dimensions      [0 2 -2 0 0 0 0];

internalField   nonuniform List<scalar> 
9200
(
0.00015020493
0.00015041512
0.00015020958
0.00015067782
0.0001504037
0.0001501746
0.00015103168
0.00015065165
0.00015036467
0.0001501527
0.00015147893
0.00015099277
0.00015061019
0.00015034017
0.00015012442
0.00015205264
0.00015142565
0.00015094845
0.00015058492
0.00015030834
0.00015009446
0.00015280301
0.00015197861
0.00015137945
0.00015092421
0.00015055149
0.00015027384
0.00015006048
0.00015381126
0.00015269537
0.0001519326
0.00015136152
0.00015089078
0.00015051336
0.00015023427
0.00015002621
0.00015526329
0.00015365041
0.00015265126
0.0001519272
0.00015133445
0.00015084919
0.0001504681
0.00015019419
0.00014999522
0.00015743595
0.00015500928
0.00015360594
0.00015266854
0.00015191631
0.0001512941
0.00015079652
0.00015042133
0.00015015811
0.00014997373
0.00016069474
0.00015704341
0.00015495559
0.00015366075
0.00015268649
0.00015188554
0.00015123491
0.00015074008
0.0001503788
0.00015013088
0.00014996685
0.00016576381
0.00016005882
0.00015695079
0.00015504421
0.00015371967
0.00015267449
0.00015182336
0.00015116627
0.00015068743
0.00015034668
0.00015011952
0.00014997403
0.00017528601
0.00016445795
0.00015985086
0.00015704197
0.00015514084
0.00015373007
0.00015261206
0.00015174061
0.00015109905
0.00015064653
0.00015033367
0.00015012505
0.00014999261
0.00019622256
0.00017166837
0.00016395568
0.00015990298
0.00015714928
0.00015516227
0.00015366388
0.00015251176
0.00015165345
0.00015104407
0.00015062737
0.00015034089
0.00015014408
0.00015001902
0.00023951459
0.00018659515
0.00017007072
0.00016388633
0.0001599859
0.00015715317
0.00015507839
0.00015353817
0.00015239769
0.0001515778
0.00015101332
0.0001506336
0.00015036362
0.00015017187
0.00015004953
0.0003157438
0.00022058005
0.00018153877
0.00016965196
0.00016391576
0.00015993519
0.00015702527
0.00015491292
0.00015338749
0.00015229371
0.00015152728
0.00015101496
0.00015065904
0.00015039535
0.00015020371
0.00015008084
0.00043935717
0.00028280887
0.00020954225
0.00018023181
0.00016959984
0.00016377019
0.00015971239
0.00015678966
0.00015470933
0.00015324548
0.00015221542
0.00015151683
0.00015104178
0.00015069436
0.00015042979
0.00015023564
0.00015011038
0.00061284959
0.00039008892
0.00026942929
0.00020745865
0.00018031568
0.00016929877
0.00016337455
0.00015934795
0.00015649961
0.00015451184
0.00015313357
0.00015218372
0.00015153953
0.00015108048
0.00015073077
0.00015046208
0.00015026488
0.00015013655
0.00082167722
0.00054887884
0.0003775303
0.00027239496
0.00020950778
0.00017983072
0.00016853734
0.00016277765
0.00015891587
0.00015621241
0.00015435372
0.00015307158
0.00015219364
0.00015157727
0.00015111826
0.00015076196
0.00015048925
0.00015028992
0.00015015873
0.0010421929
0.00074647935
0.0005424482
0.00039479881
0.00028372698
0.00020943678
0.00017790945
0.00016742503
0.00016209986
0.00015849199
0.00015596912
0.00015424826
0.00015305843
0.00015222195
0.00015161212
0.00015114658
0.0001507848
0.00015051021
0.00015031039
0.00015017696
0.0012543967
0.00095532418
0.00074846303
0.00058218443
0.00042474244
0.00028689048
0.00020376206
0.00017497398
0.0001662371
0.00016145208
0.00015812551
0.00015579094
0.00015419593
0.00015306518
0.00015224502
0.00015163253
0.00015116201
0.00015079896
0.00015052541
0.00015032681
0.00015019186
0.0014497433
0.0011485138
0.00095778711
0.00081223941
0.00063776121
0.00043504741
0.00027226498
0.00019387978
0.00017210369
0.00016517969
0.00016089657
0.00015783068
0.0001556609
0.00015416013
0.0001530622
0.00015224838
0.00015163477
0.00015116553
0.00015080621
0.00015053631
0.00015034022
0.00015020439
0.0016287278
0.0013158499
0.0011336599
0.0010337822
0.00089191255
0.00065668776
0.00040724904
0.00024414173
0.00018404175
0.0001699394
0.00016432451
0.00016043904
0.00015758984
0.00015554486
0.00015410129
0.00015303279
0.00015222862
0.00015162186
0.00015116096
0.00015080948
0.00015054483
0.00015035193
0.00015021566
0.0017930241
0.0014609038
0.0012681607
0.0012003185
0.0011269286
0.00091769029
0.00061054967
0.00034955129
0.00021515249
0.00017748689
0.00016846326
0.00016363026
0.00016004221
0.00015736699
0.00015541522
0.00015401393
0.0001529768
0.00015219181
0.00015160094
0.00015115338
0.00015081201
0.00015055296
0.00015036326
0.00015022676
0.0019430916
0.0015903084
0.001370675
0.0013118273
0.0012900189
0.0011588474
0.00085573059
0.00051293203
0.00028484631
0.00019477962
0.00017390365
0.00016740415
0.00016303985
0.00015967412
0.0001571335
0.00015525925
0.00015390582
0.00015290777
0.00015214938
0.00015158009
0.00015114781
0.00015081663
0.00015056241
0.00015037534
0.00015023863
0.0020781137
0.0017086662
0.0014537827
0.0013842417
0.0013899657
0.0013370711
0.0010938264
0.00072108257
0.00040044855
0.00023369148
0.00018355592
0.00017191361
0.0001665871
0.00016250631
0.00015931103
0.00015688052
0.00015508597
0.00015379298
0.00015284114
0.00015211305
0.00015156616
0.0001511481
0.00015082539
0.00015057445
0.00015038906
0.00015025199
0.0021970087
0.0018180397
0.0015254785
0.0014378313
0.0014550364
0.00145177
0.001290071
0.00094001031
0.0005575107
0.00030655348
0.00020347528
0.00017805064
0.00017068495
0.00016589646
0.00016200453
0.00015894196
0.00015661903
0.00015491667
0.00015369268
0.00015278916
0.00015209103
0.0001515636
0.00015115645
0.00015083938
0.0001505898
0.00015040498
0.00015026732
0.0022990299
0.0019192631
0.0015898951
0.0014807459
0.0015072691
0.0015353636
0.0014397553
0.0011414946
0.00073923574
0.00041403053
0.00024306673
0.00018856568
0.0001753636
0.00016977644
0.00016526947
0.00016151323
0.00015857557
0.00015637293
0.00015477234
0.0001536171
0.00015275826
0.00015208684
0.000151574
0.00015117335
0.00015085878
0.00015060862
0.00015042336
0.00015028486
0.0023840334
0.0020121373
0.0016493549
0.0015168816
0.0015490239
0.0016063657
0.0015610781
0.0013197113
0.00092641004
0.0005504748
0.000309205
0.0002099587
0.00018231035
0.00017386089
0.0001689652
0.00016466294
0.00016103267
0.00015823564
0.00015616591
0.00015466626
0.00015357139
0.00015274921
0.00015210007
0.00015159633
0.00015119788
0.00015088296
0.00015063065
0.00015044423
0.00015030457
0.0024529614
0.0020964035
0.0017051202
0.0015485438
0.0015820214
0.001666538
0.0016689855
0.0014828272
0.0011102708
0.00070931558
0.00040845597
0.00025161871
0.00019715892
0.00018010682
0.00017286858
0.00016814112
0.00016405732
0.0001605832
0.00015794786
0.00015601307
0.00015460241
0.00015355484
0.00015275919
0.00015212752
0.00015162778
0.00015122811
0.00015091071
0.00015065536
0.00015046731
0.00015032622
0.0025123762
0.0021727058
0.0017577675
0.0015775793
0.0016076873
0.0017136233
0.0017620773
0.0016351952
0.0012902307
0.0008822694
0.00054414775
0.00032864993
0.00023369296
0.00019581082
0.00017986373
0.00017208484
0.00016729291
0.00016346703
0.00016019277
0.00015773011
0.00015591854
0.00015457717
0.00015356322
0.00015278351
0.00015216379
0.00015166442
0.00015126153
0.00015094065
0.00015068178
0.00015049206
0.00015034934
0.0025555013
0.0022497586
0.0018081522
0.0016052681
0.0016285677
0.0017476375
0.0018352822
0.0017723564
0.0014649154
0.0010591784
0.00070745943
0.00045873641
0.00031781366
0.00024261914
0.00020117962
0.00018055854
0.00017124438
0.00016643498
0.00016292532
0.00015988432
0.0001575878
0.00015587589
0.00015458247
0.00015358957
0.00015281642
0.00015220175
0.00015170194
0.00015129554
0.00015097108
0.00015070877
0.00015051779
0.00015037334
0.0025792074
0.002318636
0.0018614229
0.0016332019
0.0016467979
0.0017709721
0.0018878089
0.0018886367
0.0016302599
0.0012324105
0.0008785732
0.00063075657
0.00047141756
0.00036041411
0.00026994948
0.00021014936
0.00018082242
0.0001701774
0.0001656053
0.00016246377
0.00015966661
0.0001575128
0.00015587195
0.00015460767
0.00015362524
0.00015285262
0.00015223578
0.00015173669
0.00015132761
0.00015100015
0.00015073544
0.00015054379
0.00015039755
0.0025845475
0.0023749603
0.0019159086
0.0016641164
0.0016642317
0.0017866088
0.0019219441
0.0019815427
0.0017816626
0.0013967507
0.0010435332
0.00080219944
0.0006633896
0.00055953706
0.00043735578
0.0003063317
0.00021641701
0.00017949224
0.0001689118
0.00016485606
0.00016209503
0.0001595307
0.00015748691
0.00015589054
0.00015464196
0.00015366286
0.00015288779
0.00015226615
0.00015176532
0.00015135566
0.00015102654
0.0001507609
0.00015056931
0.00015042126
0.0025732206
0.0024164464
0.0019678319
0.0016982646
0.0016844902
0.0017978524
0.001941859
0.0020515365
0.0019154068
0.0015489943
0.0011945607
0.00095609344
0.00084347387
0.00078342215
0.00068323388
0.00051793039
0.00033025327
0.00021448219
0.00017656791
0.00016764126
0.0001642237
0.00016181081
0.0001594538
0.00015748718
0.00015591792
0.00015467744
0.00015369784
0.00015291898
0.00015229265
0.00015178798
0.00015137833
0.00015104943
0.00015078431
0.00015059361
0.0001504438
0.0025474378
0.0024419069
0.0020158103
0.0017359385
0.0017045079
0.0018079363
0.0019518056
0.002102101
0.0020296872
0.0016874815
0.0013287952
0.0010855335
0.00098633071
0.0009781479
0.0009480319
0.00080373357
0.0005623836
0.00032560572
0.00020443343
0.00017314446
0.00016654546
0.00016371292
0.00016159104
0.00015940536
0.0001574956
0.0001559451
0.00015470908
0.0001537276
0.00015294485
0.00015231467
0.00015180652
0.00015139503
0.00015106831
0.00015080506
0.00015061606
0.00015046456
0.0025097318
0.0024511114
0.0020585597
0.0017779521
0.0017325186
0.0018131917
0.0019512208
0.002137515
0.0021258656
0.0018112638
0.0014463452
0.001190648
0.0010891378
0.0011071988
0.0011532318
0.0010941394
0.00086458407
0.00054894748
0.00029399889
0.00019138696
0.00017028369
0.00016568127
0.00016330285
0.00016140586
0.00015936183
0.00015750098
0.00015596587
0.00015473318
0.00015375017
0.00015296439
0.00015233141
0.00015182113
0.00015140807
0.00015108279
0.0001508227
0.00015063615
0.00015048305
0.0024630375
0.0024448806
0.0020950532
0.001824597
0.0017692167
0.0018252968
0.0019383893
0.0021469451
0.0022109927
0.0019206859
0.001548016
0.0012751555
0.0011577162
0.0011758129
0.0012500121
0.0012874973
0.0011539745
0.00083916492
0.00048328988
0.00025125282
0.00018047992
0.00016832414
0.00016501122
0.00016295542
0.00016122865
0.00015930882
0.00015749515
0.00015597535
0.00015474701
0.00015376403
0.00015297689
0.00015234255
0.00015183153
0.00015141801
0.00015109329
0.00015083692
0.00015065346
0.00015049887
0.0024110496
0.0024250211
0.002124765
0.0018758076
0.0018162029
0.0018451957
0.0019264934
0.002130909
0.0022749152
0.002020503
0.00163621
0.0013434572
0.0012029635
0.0011999559
0.001268264
0.0013370891
0.0013256343
0.0011163791
0.00073890625
0.00039141946
0.00021378163
0.00017380172
0.00016706197
0.00016446214
0.00016263664
0.00016104116
0.00015923591
0.00015747198
0.00015597018
0.00015474885
0.00015376839
0.00015298204
0.00015234814
0.00015183769
0.00015142495
0.00015110114
0.00015084758
0.00015066772
0.00015051177
0.0023581634
0.0023942145
0.0021478661
0.001931458
0.0018742503
0.0018747268
0.0019178064
0.0021052218
0.0023009416
0.002130326
0.0017136262
0.0013984844
0.0012341456
0.0012037365
0.0012417866
0.0012954833
0.0013491675
0.0012845824
0.0010016475
0.0005966084
0.00030077518
0.00018978513
0.00017035336
0.00016616966
0.00016398087
0.00016232408
0.00016083407
0.00015913615
0.00015742775
0.00015594865
0.00015473805
0.0001537631
0.00015297989
0.00015234842
0.00015183977
0.00015142876
0.00015110656
0.0001508547
0.00015067879
0.00015052162
0.002355879
0.0023077874
0.002165281
0.0019914445
0.0019435567
0.0019145677
0.001913583
0.0020724607
0.0023031822
0.0022178944
0.0018057615
0.001446008
0.0012549335
0.0012001247
0.001209328
0.0012301808
0.0012838012
0.001319622
0.0011907638
0.00083288593
0.00045046715
0.00023433256
0.00017795378
0.00016848728
0.00016545823
0.00016353432
0.00016200625
0.00016060421
0.00015900669
0.00015736108
0.00015591037
0.00015471472
0.00015374845
0.00015297083
0.00015234359
0.000151838
0.00015142956
0.00015110956
0.00015085946
0.00015068666
0.00015052842
0.0021790199
0.0023141631
0.0022618577
0.0020558882
0.0020237285
0.0019644181
0.0019147627
0.0020341972
0.0022853615
0.0022792716
0.0018951739
0.0015007362
0.0012738437
0.0011935076
0.0011820778
0.0011765532
0.0012023952
0.0012705058
0.0012724513
0.0010425774
0.0006410011
0.000328667
0.00019837171
0.00017259897
0.00016730357
0.00016484324
0.00016310511
0.00016168014
0.00016035284
0.00015884846
0.00015727243
0.00015585598
0.00015467955
0.00015372512
0.00015295559
0.00015233399
0.0001518326
0.00015142753
0.00015111018
0.00015086208
0.00015069138
0.00015053229
0.0021253912
0.0021920678
0.0022733503
0.0022215229
0.0021136848
0.0020228918
0.0019210658
0.0019928938
0.0022483488
0.0023139423
0.00197416
0.0015589348
0.0012942248
0.0011920548
0.001163679
0.0011420755
0.0011405711
0.0011976393
0.0012689535
0.0011805402
0.00084354134
0.00046589746
0.00024602462
0.00018183835
0.00017000146
0.00016642062
0.00016428598
0.00016268651
0.00016134797
0.00016008379
0.00015866521
0.00015716368
0.0001557869
0.00015463376
0.00015369407
0.00015293475
0.00015232007
0.00015182385
0.00015142281
0.00015110856
0.0001508627
0.00015069387
0.00015053354
0.0022115607
0.0022020194
0.0022082316
0.0022359662
0.0021873469
0.0020875646
0.0019311503
0.0019496718
0.0021962793
0.0023215255
0.0020358531
0.001613588
0.0013209771
0.0011911114
0.0011535591
0.0011229921
0.0011032712
0.001136049
0.001221907
0.0012395859
0.0010188553
0.00063062153
0.00033110245
0.0002031663
0.00017480515
0.00016851238
0.00016568568
0.00016376763
0.00016227789
0.00016101422
0.00015980198
0.00015846251
0.00015703774
0.00015570514
0.00015457884
0.00015365652
0.00015290885
0.00015230229
0.00015181208
0.00015141559
0.00015110481
0.0001508614
0.00015069448
0.00015053299
0.0021548011
0.0023141675
0.0022889902
0.0022239917
0.0022043992
0.0021590932
0.0019428647
0.0019053275
0.0021311819
0.0023032843
0.0020759536
0.0016614339
0.0013473238
0.0011944975
0.0011475282
0.0011123876
0.001084633
0.001095385
0.0011671592
0.0012403944
0.0011395108
0.00080220849
0.00044830865
0.00024522658
0.000184457
0.00017163564
0.00016747814
0.00016504064
0.0001632799
0.00016188118
0.00016068336
0.00015951256
0.00015824667
0.0001568981
0.00015561305
0.00015451636
0.00015361347
0.00015287856
0.0001522811
0.00015179758
0.00015140612
0.0001510991
0.00015085834
0.00015069337
0.00015053091
0.0019547401
0.0022200336
0.0024158061
0.0023634664
0.0022414139
0.0021802364
0.0021358841
0.0018568907
0.0020628211
0.002259166
0.0020926702
0.0016994773
0.0013730034
0.0012004547
0.0011431289
0.0011119795
0.0010793425
0.0010736935
0.0011228931
0.0012118765
0.0012020336
0.00095531218
0.00058302526
0.00031293729
0.00020333646
0.00017687533
0.00016994143
0.0001666536
0.00016445813
0.0001628191
0.00016149856
0.00016035799
0.00015922034
0.00015802378
0.00015674856
0.00015551308
0.00015444811
0.0001535657
0.00015284455
0.00015225696
0.00015178066
0.00015139461
0.0001510916
0.00015085366
0.0001506907
0.00015052748
0.001809042
0.0019645918
0.0022784495
0.0025079435
0.002432794
0.0022613731
0.0021641005
0.002116562
0.0019671538
0.0021977202
0.0020851447
0.0017252261
0.0013973818
0.001209756
0.0011482423
0.0011151122
0.0010844733
0.0010656986
0.0010941537
0.0011766032
0.0012215449
0.0010713705
0.00072383842
0.00040458687
0.00023592518
0.00018608968
0.00017360506
0.00016882804
0.00016594915
0.00016392317
0.00016238313
0.0001611313
0.00016003633
0.00015892959
0.0001577991
0.00015659278
0.00015540755
0.0001543754
0.00015351406
0.00015280743
0.0001522303
0.00015176165
0.0001513813
0.00015108252
0.00015084752
0.00015068664
0.00015052287
0.0018689002
0.0017647723
0.001969379
0.0023246622
0.0025837735
0.0024946285
0.0022843455
0.002155645
0.0020999359
0.0021121336
0.0020544489
0.0017373885
0.0014189921
0.0012230744
0.001158038
0.0011295311
0.0010922221
0.0010647251
0.0010799777
0.001147331
0.0012165479
0.0011470745
0.000855744
0.00051108071
0.00028469169
0.0002016827
0.00017939573
0.00017193132
0.00016797376
0.00016532556
0.00016342623
0.00016197009
0.00016077909
0.0001597125
0.00015864408
0.00015757683
0.00015643411
0.00015529882
0.00015429923
0.00015345938
0.00015276779
0.00015220153
0.00015174084
0.00015136643
0.00015107203
0.0001508401
0.00015068136
0.00015051726
0.0020103052
0.0017772315
0.0017237823
0.0019662307
0.0023543144
0.0026395971
0.0025484099
0.0023095672
0.0021535389
0.0020846899
0.0020041482
0.0017358562
0.0014367696
0.0012403602
0.0011753136
0.0011502628
0.0011099107
0.0010675181
0.0010687049
0.0011325035
0.0012027762
0.001188637
0.00096800584
0.00062181478
0.00034929954
0.00022577265
0.00018862425
0.00017662996
0.00017088089
0.00016725791
0.00016475912
0.00016296031
0.00016157767
0.00016043897
0.00015938876
0.00015836708
0.00015736011
0.00015627553
0.00015518834
0.00015422063
0.00015340242
0.00015272615
0.00015217102
0.00015171852
0.00015135023
0.00015106034
0.00015083156
0.00015067502
0.00015051079
0.0019385413
0.0019029147
0.0016952629
0.0016841574
0.0019533534
0.0023643441
0.0026736226
0.0025917901
0.0023349313
0.0021556156
0.0020694023
0.0017221126
0.0014505052
0.0012617809
0.0012010424
0.0011809495
0.0011351346
0.0010793687
0.0010582315
0.0011122016
0.0012027288
0.0012099298
0.0010541339
0.00073103078
0.00042706804
0.00025928292
0.00020244766
0.0001839138
0.00017530929
0.00017010543
0.00016662672
0.00016423365
0.00016251968
0.00016120242
0.00016010319
0.00015906998
0.0001581013
0.0001571511
0.00015611946
0.00015507733
0.00015414055
0.00015334382
0.00015268297
0.00015213914
0.00015169496
0.00015133289
0.0001510476
0.00015082209
0.00015066782
0.00015050364
0.0016986701
0.0018639329
0.0017985979
0.0016223827
0.0016450791
0.0019299938
0.002353691
0.0026851392
0.0026212231
0.0023576536
0.002159192
0.0020525616
0.0014606023
0.0012877976
0.0012362336
0.0012230809
0.0011700785
0.0010995429
0.0010563361
0.0010880234
0.0011870833
0.0012337381
0.0011200968
0.00083105542
0.00051285074
0.00030270591
0.00022139623
0.00019447202
0.00018221037
0.00017455127
0.00016946221
0.00016604711
0.00016373716
0.00016209878
0.0001608384
0.00015975766
0.00015876084
0.00015784888
0.00015695138
0.00015596728
0.0001549669
0.00015405978
0.00015328417
0.00015263867
0.00015210617
0.00015167039
0.00015131463
0.00015103404
0.00015081186
0.0001506599
0.00015049586
0.0014683036
0.0016694272
0.0017854148
0.0017030373
0.0015586828
0.001606307
0.0018964562
0.0023221996
0.0026714262
0.0026336671
0.0023738633
0.0021587851
0.0020320145
0.0013191036
0.0012815412
0.0012775931
0.0012160452
0.0011271956
0.0010623846
0.00107014
0.0011599346
0.0012485212
0.0011757487
0.00092064806
0.0005996253
0.00035601929
0.00024673633
0.00020843473
0.00019198572
0.00018156384
0.00017400625
0.00016887436
0.00016549467
0.00016325986
0.00016169084
0.00016047467
0.00015940694
0.00015846568
0.00015761135
0.00015676158
0.00015581997
0.00015485788
0.00015397894
0.00015322392
0.0001525936
0.0001520724
0.00015164504
0.00015129566
0.00015101985
0.00015080103
0.00015065116
0.00015048559
0.0013563169
0.0014758885
0.0016364775
0.0017087787
0.0016194106
0.0015040504
0.0015680713
0.0018538151
0.0022707954
0.0026311606
0.0026251221
0.0023755603
0.0021528732
0.0020047905
0.0013377516
0.0013443528
0.0012735211
0.0011626848
0.0010737323
0.0010603883
0.0011328475
0.0012418556
0.0012384292
0.0010034169
0.00068367558
0.00041851309
0.00027967361
0.00022764582
0.00020483678
0.00019115033
0.00018120212
0.00017349189
0.0001682893
0.00016495092
0.00016279237
0.00016128586
0.00016009216
0.00015906264
0.00015818777
0.00015738952
0.00015658185
0.00015567809
0.00015475084
0.00015389853
0.00015316347
0.00015254807
0.00015203806
0.00015161915
0.00015127622
0.00015100518
0.00015078933
0.00015063892
0.00015047449
0.001404376
0.0014001345
0.0014843575
0.0016031097
0.0016391404
0.0015492177
0.0014582409
0.0015310626
0.0018040172
0.0022018288
0.0025637954
0.0025895519
0.0023623947
0.0021378781
0.0019680746
0.0014220161
0.0013411355
0.0012053553
0.0010906259
0.0010542565
0.0011130594
0.0012224165
0.0012748266
0.0011122227
0.00076691863
0.00048814647
0.00032113992
0.00025402362
0.00022373506
0.00020414316
0.00019043125
0.00018073164
0.00017288733
0.00016766924
0.00016440195
0.00016232363
0.00016086676
0.00015968967
0.00015873369
0.00015792963
0.00015718355
0.00015641209
0.00015554189
0.00015464616
0.00015381892
0.00015310313
0.00015250234
0.00015200345
0.00015159299
0.00015125645
0.00015098947
0.00015077123
0.00015062595
0.00015046281
0.001506737
0.0014799923
0.0014482118
0.0014942679
0.0015723375
0.001579952
0.0014927134
0.0014211419
0.0014960632
0.0017493066
0.0021198764
0.0024720124
0.0025319482
0.0023332318
0.0021095145
0.0019188202
0.0014151565
0.0012533127
0.0011124888
0.0010524011
0.0010943943
0.0012050861
0.0012863352
0.0012018188
0.00088683835
0.00056058864
0.00037110823
0.00028834358
0.00025132574
0.00022527052
0.000203934
0.0001892584
0.00017990082
0.00017211418
0.00016699067
0.00016382723
0.00016183242
0.0001604094
0.00015929178
0.00015842726
0.00015769285
0.0001569931
0.00015625199
0.00015541133
0.00015454403
0.00015374036
0.00015304316
0.00015245671
0.00015196884
0.0001515667
0.00015123548
0.00015096369
0.00015075253
0.00015061253
0.00015045062
0.0014890289
0.0015913711
0.0015570393
0.0014968856
0.0015064011
0.0015467792
0.001532831
0.0014493592
0.0013920802
0.0014632674
0.0016920641
0.0020319806
0.0023773056
0.0024538036
0.0022835566
0.002062836
0.0018540292
0.0013039111
0.0011386961
0.0010544399
0.0010784788
0.0011859207
0.0012844723
0.0012649858
0.0010038347
0.00066116741
0.00042761641
0.00032930502
0.00028723794
0.00025784962
0.00022865931
0.0002032589
0.00018740338
0.00017855624
0.00017112514
0.00016620624
0.00016319984
0.00016129962
0.00015992088
0.00015891627
0.00015814838
0.00015747793
0.00015681734
0.00015610109
0.00015528621
0.00015444459
0.00015366311
0.00015298387
0.00015241148
0.00015193436
0.00015153901
0.00015119905
0.00015093763
0.00015073374
0.00015059867
0.00015043802
0.0013540078
0.0015550012
0.0016651388
0.0016254792
0.0015443586
0.001521339
0.0015280905
0.0014975875
0.0014179281
0.0013696131
0.0014320032
0.0016388139
0.0019538092
0.0022668558
0.0023518331
0.0022081268
0.001993324
0.0017716478
0.0011677565
0.0010601976
0.0010653816
0.0011666794
0.0012758523
0.0012999577
0.0011087588
0.00076638447
0.00050187051
0.00037296836
0.00032704543
0.00029855314
0.00026780268
0.00023251685
0.00020177365
0.00018493845
0.00017661057
0.00016985678
0.00016529667
0.00016251213
0.00016071531
0.00015944749
0.00015857519
0.0001579001
0.00015728434
0.00015665505
0.00015595876
0.00015516623
0.00015434789
0.0001535874
0.00015292554
0.00015236676
0.00015189831
0.00015148906
0.00015116279
0.00015091199
0.00015071485
0.00015058449
0.00015042507
0.001197697
0.0014001921
0.0016080913
0.0017196596
0.0016802833
0.0015896871
0.0015390628
0.0015167075
0.0014732294
0.0013956867
0.0013530641
0.0014062538
0.001592204
0.0018673118
0.0021382275
0.0022231083
0.0021032869
0.0018981825
0.0016714062
0.0010694304
0.0010547556
0.0011488689
0.0012638985
0.0013123124
0.0011907884
0.00087043104
0.00058103704
0.00042147905
0.0003680234
0.00034118745
0.00031247793
0.00027764662
0.00023614887
0.00019959684
0.00018200546
0.00017423623
0.0001683697
0.00016429468
0.00016177836
0.0001601128
0.000159016
0.00015827671
0.00015768344
0.00015711047
0.00015650467
0.00015582427
0.0001550511
0.00015425404
0.00015351347
0.00015286826
0.00015232033
0.0001518311
0.00015143996
0.00015112768
0.00015088668
0.00015069597
0.00015057002
0.00015041189
0.0010815813
0.0012254663
0.0014388802
0.0016432815
0.0017502547
0.0017232314
0.0016314502
0.0015584716
0.0015116102
0.0014571495
0.0013836588
0.0013358844
0.0013836353
0.0015434065
0.0017706773
0.0019914117
0.0020672568
0.0019677018
0.001777455
0.0015531516
0.0010471195
0.0011303491
0.0012568216
0.001308289
0.0012446802
0.00096580414
0.00066084006
0.00047674178
0.00040970162
0.00040731782
0.00038082428
0.00033520738
0.0002857761
0.00023907022
0.00019633795
0.00017867588
0.00017176969
0.000166801
0.00016326844
0.00016103791
0.00015956681
0.00015864292
0.00015802635
0.0001574971
0.00015695384
0.00015636464
0.00015569687
0.00015494055
0.00015416312
0.00015344137
0.00015280922
0.00015223159
0.00015176574
0.00015139296
0.00015109349
0.00015086182
0.00015067713
0.00015055536
0.00015039855
0.001043119
0.0010956735
0.0012492088
0.0014640867
0.0016597521
0.0017656704
0.0017548143
0.0016661622
0.001576907
0.0015118024
0.0014494761
0.0013670137
0.0013221994
0.0013633149
0.0014892903
0.0016630486
0.0018276728
0.0018864625
0.0018035439
0.0016349968
0.0014128895
0.0011116751
0.0012442619
0.0013017046
0.0012697772
0.00104403
0.00073749594
0.00053292842
0.00045766118
0.00047557366
0.00052018489
0.00047796292
0.00039056061
0.0003034071
0.00023840689
0.0001914231
0.00017528747
0.00016947935
0.00016530313
0.00016230427
0.00016035803
0.00015911363
0.00015834157
0.00015782676
0.00015733728
0.00015681165
0.00015623346
0.00015557582
0.00015483437
0.00015407504
0.00015336757
0.0001526943
0.00015214603
0.00015170373
0.00015134769
0.00015106038
0.0001508374
0.00015065841
0.00015054056
0.00015038512
0.0010934655
0.0010434424
0.0011104548
0.0012653608
0.001472289
0.0016558985
0.0017621483
0.0017689433
0.001689163
0.0015938325
0.0015160354
0.0014352916
0.0013547976
0.0013121171
0.001341467
0.0014286544
0.0015432644
0.001648872
0.0016852985
0.0016184207
0.0014706222
0.0012434471
0.001224565
0.0012942624
0.0012704147
0.0010990455
0.00080606267
0.00058663299
0.00050362289
0.00054310377
0.00067341529
0.00076055379
0.00067470049
0.00050277358
0.00033227233
0.00023339332
0.00018522641
0.00017224311
0.00016753217
0.00016400818
0.00016148576
0.0001598253
0.00015877723
0.00015812643
0.0001576729
0.00015719851
0.00015668101
0.00015610981
0.00015546047
0.00015473218
0.00015398554
0.00015322302
0.00015258413
0.00015206549
0.00015164457
0.00015130433
0.00015102832
0.00015081349
0.00015063987
0.00015052569
0.00015037168
0.0011972219
0.0010779455
0.0010490336
0.0011231632
0.0012713768
0.001462096
0.0016299263
0.0017364112
0.001761804
0.0017017511
0.0016078786
0.001510094
0.0014221569
0.0013433049
0.0013044002
0.0013175437
0.0013585505
0.0014095152
0.0014572284
0.0014713292
0.0014189457
0.0012794115
0.0010329873
0.001277078
0.0012560005
0.0011272806
0.00086133552
0.00063441511
0.00054353543
0.00059796208
0.00078648187
0.0010782274
0.0011678858
0.00098761219
0.00063601007
0.0003497959
0.00022267465
0.00017894254
0.00016982081
0.00016600182
0.00016299945
0.00016086923
0.00015945874
0.00015856722
0.00015800074
0.00015755057
0.00015707469
0.00015655916
0.00015599248
0.00015534996
0.00015462905
0.00015381262
0.00015308449
0.00015248098
0.00015198925
0.00015158838
0.00015126275
0.00015099734
0.00015079013
0.00015062158
0.00015051081
0.00015035821
0.0012483622
0.0011663634
0.0010697049
0.0010591379
0.0011322216
0.0012656408
0.0014334392
0.001583097
0.0016889002
0.0017363834
0.0017004701
0.0016031048
0.0014977223
0.0014084893
0.0013337528
0.0012987839
0.0012887775
0.0012741889
0.0012589174
0.0012548522
0.0012502327
0.0011997313
0.0010516589
0.00079062968
0.0012310233
0.0011294924
0.00089900568
0.00067289485
0.00057432359
0.00063410324
0.00086089351
0.0012363651
0.0016885848
0.0017009467
0.0012891651
0.00070877392
0.00033569029
0.00020728773
0.00017387307
0.00016809364
0.00016488782
0.00016228711
0.0001604622
0.00015924344
0.00015846019
0.00015791648
0.00015744518
0.00015696001
0.00015644357
0.00015588013
0.00015523901
0.00015443727
0.0001536456
0.00015295486
0.00015238396
0.0001519174
0.00015153499
0.00015122297
0.00015096745
0.00015076735
0.00015060359
0.00015049589
0.00015034468
0.0011953867
0.0012095155
0.001138877
0.0010693316
0.0010727987
0.001136896
0.0012480118
0.0013875886
0.0015175098
0.0016218844
0.0016875655
0.0016687904
0.0015790684
0.0014821181
0.0013941499
0.0013276694
0.0012945367
0.0012491095
0.0011680022
0.0010882077
0.0010444496
0.0010240424
0.00095965092
0.00079897838
0.00055794065
0.0011106579
0.0009163768
0.00069958308
0.00059448045
0.00065077071
0.00088841477
0.0013131227
0.0018434863
0.0023123545
0.0021301425
0.0014290434
0.00067844204
0.0002942867
0.00019157431
0.00017064681
0.00016696461
0.00016413704
0.00016182692
0.00016022284
0.0001591324
0.00015839387
0.00015784001
0.00015734574
0.00015684987
0.00015633233
0.00015576758
0.00015504271
0.00015424944
0.00015348809
0.00015283326
0.00015229313
0.00015184965
0.00015148434
0.00015118495
0.00015093869
0.00015074518
0.00015058573
0.00015048104
0.00015033115
0.001076191
0.0011513949
0.0011652707
0.0011172126
0.0010769378
0.0010891109
0.0011373809
0.0012191594
0.0013269593
0.0014368213
0.001536811
0.0016083147
0.0016128813
0.0015506949
0.0014624837
0.001381134
0.0013260479
0.0012874384
0.0011859838
0.001031438
0.00089833147
0.00083287035
0.00079798561
0.00071764384
0.00056214536
0.00037851399
0.00091355449
0.00071330183
0.00060412409
0.00065084921
0.00087844086
0.0012958727
0.0018672434
0.0023836783
0.0026884054
0.0023048369
0.0013691452
0.00056526881
0.00024575492
0.00017888219
0.00016908631
0.00016626637
0.0001636625
0.00016154288
0.00016008301
0.00015906563
0.00015833488
0.00015776073
0.00015724559
0.0001567419
0.00015622074
0.00015557402
0.00015484832
0.00015406942
0.00015333959
0.00015271989
0.00015220807
0.00015178584
0.00015143634
0.00015114868
0.00015091103
0.00015072332
0.00015056802
0.00015046631
0.00015031766
0.00089362549
0.0010330657
0.0011002581
0.0011209816
0.0011032656
0.0010922277
0.0011074274
0.0011338033
0.0011809765
0.001255602
0.0013475392
0.0014394164
0.0015278779
0.0015591791
0.0015157564
0.0014393093
0.0013727919
0.0013290939
0.0012622089
0.0010832041