/*--------------------------------*- C++ -*----------------------------------*\
  =========                 |
  \\      /  F ield         | OpenFOAM: The Open Source CFD Toolbox
   \\    /   O peration     | Website:  https://openfoam.org
    \\  /    A nd           | Version:  8
     \\/     M anipulation  |
\*---------------------------------------------------------------------------*/
FoamFile
{
    version     2.0;
    format      ascii;
    class       volScalarField;
    location    "200.966377299857271";
    object      k_0;
}
// * * * * * * * * * * * * * * * * * * * * * * * * * * * * * * * * * * * * * //

dimensions      [0 2 -2 0 0 0 0];

internalField   nonuniform List<scalar> 
9200
(
0.00015020465
0.00015041496
0.00015020895
0.0001506779
0.00015040307
0.00015017404
0.00015103223
0.000150651
0.00015036405
0.00015015259
0.00015148043
0.00015099212
0.00015060939
0.00015034005
0.00015012508
0.00015205606
0.00015142508
0.00015094722
0.00015058465
0.00015030909
0.00015009596
0.00015280931
0.000151978
0.00015137734
0.00015092344
0.00015055227
0.00015027556
0.00015006264
0.0001538223
0.00015269512
0.000151929
0.00015135952
0.0001508913
0.00015051534
0.00015023673
0.00015002865
0.00015528126
0.00015365016
0.00015264511
0.00015192287
0.00015133394
0.00015085129
0.00015047102
0.00015019695
0.00014999746
0.00015746173
0.00015501213
0.00015359538
0.00015266028
0.0001519135
0.00015129581
0.00015079992
0.00015042462
0.00015016059
0.00014997523
0.00016073515
0.00015704914
0.00015493996
0.00015364659
0.00015267979
0.00015188582
0.00015123867
0.00015074405
0.00015038174
0.00015013255
0.00014996738
0.0001658375
0.00016006662
0.00015693038
0.0001550229
0.00015370735
0.00015267208
0.00015182697
0.00015117114
0.00015069111
0.00015034863
0.00015012002
0.00014997364
0.00017548508
0.00016447568
0.00015982449
0.00015701272
0.00015512186
0.00015372389
0.00015261488
0.00015174645
0.00015110392
0.00015064911
0.00015033413
0.00015012445
0.00014999153
0.00019681889
0.00017173529
0.00016392376
0.0001598642
0.00015712311
0.00015515166
0.00015366532
0.00015251853
0.00015165999
0.00015104795
0.00015062806
0.00015034
0.0001501427
0.00015001757
0.00024084045
0.00018682548
0.00017003136
0.00016383297
0.00015995091
0.00015713746
0.00015507785
0.00015354566
0.00015240633
0.00015158384
0.00015101488
0.00015063253
0.00015036187
0.00015017018
0.00015004811
0.00031820621
0.00022103369
0.00018145594
0.00016956027
0.00016386597
0.00015991392
0.0001570224
0.00015492074
0.00015339832
0.0001523025
0.00015153084
0.0001510141
0.0001506569
0.00015039336
0.00015020218
0.00015007979
0.00044334955
0.00028330549
0.00020920176
0.00017996672
0.00016950681
0.00016374073
0.00015970825
0.00015679811
0.00015472221
0.00015325696
0.00015222216
0.00015151716
0.00015103941
0.00015069208
0.0001504282
0.00015023468
0.00015010997
0.00061842476
0.00039058423
0.0002681913
0.00020652946
0.00018001741
0.00016924304
0.00016337098
0.00015935866
0.00015651534
0.00015452628
0.00015314372
0.00015218643
0.00015153769
0.00015107797
0.00015072919
0.00015046137
0.00015026475
0.00015013696
0.00082892101
0.00054932615
0.00037493977
0.00026985392
0.00020845664
0.00017964007
0.00016853314
0.00016279512
0.00015893573
0.00015623079
0.0001543667
0.0001530774
0.00015219335
0.00015157511
0.00015111682
0.00015076169
0.00015048969
0.00015029075
0.00015015998
0.0010513829
0.00074717846
0.00053811734
0.00039015261
0.00028099832
0.00020878173
0.00017788798
0.00016745903
0.00016212865
0.00015851486
0.0001559858
0.0001542572
0.00015306036
0.00015222097
0.00015161128
0.00015114695
0.00015078608
0.00015051185
0.00015031215
0.00015017896
0.0012661075
0.0009572078
0.00074283135
0.00057502204
0.00042019829
0.00028543535
0.00020373428
0.0001750657
0.00016628603
0.00016148305
0.00015814678
0.00015580324
0.00015420065
0.00015306622
0.00015224537
0.00015163396
0.0001511644
0.00015080171
0.00015052809
0.00015032933
0.00015019444
0.0014645298
0.001152941
0.00095240247
0.00080336074
0.00063139552
0.00043340792
0.00027264601
0.00019425895
0.00017221663
0.00016522623
0.00016092402
0.00015784814
0.00015567031
0.00015416497
0.00015306458
0.00015225124
0.00015163858
0.00015116965
0.00015081008
0.00015053973
0.00015034326
0.00015020732
0.0016468456
0.0013238147
0.0011305116
0.001025056
0.0008849413
0.00065553801
0.00040923884
0.0002456349
0.00018445654
0.00017002344
0.00016436133
0.00016046199
0.00015760421
0.00015555386
0.00015410877
0.00015303831
0.00015223386
0.00015162745
0.0001511662
0.00015081397
0.00015054863
0.00015035521
0.00015021871
0.0018143036
0.0014729456
0.0012680809
0.0011935761
0.0011206577
0.00091801588
0.00061533836
0.00035370308
0.00021664976
0.00017773095
0.00016851699
0.00016365856
0.00016006185
0.00015738056
0.0001554258
0.00015402352
0.00015298436
0.00015219839
0.00015160726
0.00015115895
0.00015081655
0.00015055673
0.00015036649
0.00015022968
0.0019670319
0.0016065258
0.0013740059
0.0013068494
0.0012849182
0.0011605321
0.00086379617
0.00052124232
0.00028908579
0.00019569327
0.00017402015
0.00016743537
0.00016306108
0.00015969099
0.00015714764
0.00015527144
0.00015391606
0.00015291535
0.00015215576
0.00015158604
0.00015115291
0.0001508207
0.00015056579
0.00015037826
0.00015024121
0.0021039933
0.001728935
0.0014603802
0.0013809978
0.0013856054
0.0013381301
0.0011039586
0.00073412096
0.00040878153
0.00023647688
0.00018398741
0.00017195761
0.00016660193
0.00016252149
0.00015932613
0.00015689477
0.00015509761
0.00015380158
0.00015284683
0.00015211779
0.00015157076
0.00015115207
0.00015082857
0.00015057716
0.00015039146
0.00015025406
0.0022240125
0.0018421606
0.0015351715
0.0014356959
0.001449491
0.0014500502
0.0012997605
0.00095651106
0.00057087908
0.00031275725
0.00020490865
0.00017820651
0.00017069063
0.00016590008
0.000162014
0.00015895495
0.00015663098
0.00015492481
0.00015369762
0.00015279169
0.00015209322
0.00015156619
0.00015115888
0.00015084141
0.00015059165
0.0001504067
0.00015026875
0.0023263526
0.0019468777
0.0016024935
0.0014795307
0.0014999643
0.0015304461
0.0014462393
0.0011588729
0.00075701651
0.00042421506
0.00024655108
0.00018909766
0.00017538867
0.0001697646
0.00016526352
0.00016151801
0.00015858433
0.00015637937
0.0001547747
0.00015361725
0.00015275721
0.00015208614
0.00015157431
0.00015117406
0.00015085953
0.00015060951
0.00015042431
0.00015028557
0.0024109572
0.0020427057
0.0016646887
0.0015166005
0.0015402545
0.0015982653
0.001562862
0.0013352904
0.00094662435
0.00056470067
0.00031548549
0.00021122088
0.00018235026
0.00017381978
0.00016894723
0.00016465168
0.00016103184
0.00015823713
0.00015616435
0.00015466177
0.00015356655
0.0001527448
0.00015209655
0.00015159441
0.00015119691
0.00015088245
0.00015063056
0.00015044437
0.00015030455
0.0024788653
0.0021293045
0.0017229785
0.001549299
0.0015723293
0.0016556974
0.0016660552
0.0014946249
0.0011308425
0.0007259757
0.00041697808
0.00025339398
0.00019692229
0.00017985767
0.00017278159
0.00016812397
0.00016404256
0.00016057458
0.00015793953
0.00015600238
0.00015459123
0.00015354542
0.00015275186
0.00015212159
0.00015162395
0.00015122567
0.00015090907
0.00015065436
0.00015046666
0.00015032548
0.0025365222
0.002207281
0.0017779229
0.0015794417
0.001597622
0.0017008417
0.0017551942
0.001642646
0.0013100274
0.00089981272
0.00055252163
0.00032933846
0.00023171225
0.00019446939
0.00017937053
0.00017197333
0.00016727784
0.00016344789
0.000160174
0.00015771074
0.0001558991
0.00015456027
0.00015354996
0.0001527738
0.00015215616
0.00015165918
0.00015125793
0.00015093808
0.00015068
0.00015049069
0.00015034796
0.0025773462
0.002285751
0.001830296
0.0016082317
0.0016185771
0.0017336976
0.0018252939
0.0017753012
0.0014834418
0.0010770572
0.00071536788
0.00045597444
0.00031064476
0.00023734398
0.00019877295
0.000179902
0.00017114232
0.00016642292
0.00016289949
0.000159854
0.00015755793
0.00015584938
0.00015456124
0.00015357357
0.00015280496
0.00015219335
0.00015169579
0.00015129113
0.00015096784
0.00015070637
0.00015051582
0.00015037141
0.0025984372
0.0023552823
0.0018855661
0.0016372823
0.0016372456
0.0017565395
0.0018755148
0.0018869588
0.0016470894
0.0012507345
0.00088680268
0.00062559245
0.00045662479
0.00034628677
0.00026151001
0.00020706515
0.00018020998
0.00017011473
0.00016559363
0.0001624295
0.00015962527
0.00015747468
0.00015584066
0.00015458377
0.00015360764
0.00015284004
0.00015222691
0.00015173011
0.00015132274
0.00015099649
0.00015073258
0.00015054134
0.0001503952
0.0026010809
0.0024113775
0.0019416923
0.0016692894
0.0016553321
0.0017722255
0.0019079551
0.0019753056
0.001796259
0.0014158705
0.0010531942
0.00079697092
0.00064578811
0.00053766051
0.000418506
0.00029648287
0.0002136856
0.00017912785
0.00016889145
0.00016484002
0.00016205271
0.0001594811
0.00015744384
0.00015585697
0.00015461687
0.00015364457
0.00015287467
0.00015225688
0.00015175869
0.00015135062
0.00015102267
0.00015075775
0.00015056652
0.00015041863
0.0025871853
0.0024517502
0.0019947117
0.0017046963
0.001676399
0.0017839462
0.0019267213
0.0020409722
0.0019271941
0.0015691783
0.0012066874
0.00095329496
0.00082599978
0.00075773863
0.00065803596
0.00050026672
0.00032244305
0.00021299337
0.00017648088
0.0001676421
0.00016420008
0.00016176256
0.00015940023
0.00015744269
0.00015588386
0.00015465215
0.00015367941
0.0001529057
0.00015228315
0.00015178121
0.00015137333
0.00015104549
0.00015078101
0.00015059064
0.00015044103
0.0025590984
0.0024753139
0.0020431028
0.0017432573
0.0016974442
0.0017951665
0.0019361674
0.0020875764
0.0020381704
0.0017087613
0.0013440936
0.0010868189
0.00097244341
0.00095348898
0.00092003451
0.00078178749
0.00055094294
0.0003220557
0.00020423091
0.00017320827
0.00016654562
0.00016368189
0.00016154036
0.00015935254
0.000157452
0.00015591177
0.0001546843
0.00015370949
0.00015293172
0.0001523052
0.00015179972
0.00015139008
0.00015106444
0.00015080175
0.00015061304
0.00015046178
0.0025194058
0.0024819648
0.0020854957
0.0017856943
0.0017263481
0.0018017759
0.001936261
0.0021192326
0.0021307739
0.0018335359
0.0014651765
0.0011968625
0.0010806628
0.0010882216
0.0011298892
0.001074369
0.00085320568
0.00054588856
0.00029438131
0.00019185377
0.00017036707
0.00016567135
0.00016326727
0.00016135685
0.00015931271
0.00015745986
0.00015593427
0.00015470962
0.00015373285
0.00015295174
0.00015232223
0.00015181445
0.00015140318
0.00015107904
0.00015081949
0.00015063319
0.00015048037
0.0024710417
0.0024726402
0.0021208255
0.0018321813
0.0017638172
0.0018156579
0.0019249138
0.0021259717
0.0022119803
0.0019435814
0.0015705806
0.0012864488
0.0011553672
0.0011645044
0.0012372026
0.0012769946
0.0011487443
0.0008398078
0.00048707259
0.00025356004
0.00018099629
0.000168371
0.00016499248
0.00016291991
0.00016118492
0.0001592654
0.00015745787
0.00015594639
0.00015472524
0.00015374789
0.00015296501
0.00015233384
0.00015182513
0.00015141325
0.00015108966
0.00015083388
0.00015065067
0.00015049639
0.0024177763
0.0024492738
0.0021485738
0.0018825593
0.0018113961
0.0018376756
0.0019152509
0.0021085125
0.002269515
0.0020446281
0.0016626112
0.0013595195
0.001206331
0.0011960526
0.0012655326
0.0013368405
0.0013296684
0.0011235605
0.00074854946
0.00039847782
0.00021609088
0.00017410595
0.00016707457
0.00016444048
0.00016260456
0.00016100477
0.00015919983
0.00015743966
0.00015594458
0.00015472935
0.00015375376
0.00015297114
0.00015234004
0.00015183168
0.00015142044
0.00015109769
0.00015084475
0.00015066517
0.00015050956
0.0023640251
0.0024146829
0.0021689604
0.0019366489
0.0018698216
0.0018697129
0.0019093687
0.002082618
0.0022893347
0.0021534981
0.0017437405
0.0014189517
0.0012423984
0.0012053049
0.0012457374
0.0013026651
0.0013590125
0.0012967744
0.0010172201
0.00061057696
0.0003079383
0.00019118683
0.00017048042
0.00016616722
0.0001639602
0.00016229726
0.0001608058
0.00015910844
0.00015740118
0.00015592689
0.00015472113
0.00015375019
0.00015297012
0.00015234104
0.00015183424
0.00015142459
0.00015110336
0.00015085211
0.00015067652
0.00015051973
0.0023724077
0.0023129712
0.0021829632
0.001994345
0.0019392974
0.0019125068
0.0019086215
0.0020508378
0.0022866681
0.0022372529
0.001839671
0.0014701627
0.0012672577
0.0012053773
0.0012163829
0.0012401734
0.0012943674
0.0013314074
0.001208068
0.00085350687
0.00046428296
0.00023900756
0.00017856501
0.00016853641
0.00016545032
0.00016351672
0.00016198515
0.00016058411
0.00015898774
0.00015734069
0.00015589278
0.00015470057
0.00015373737
0.00015296226
0.00015233701
0.00015183301
0.00015142579
0.00015110667
0.00015085713
0.0001506847
0.00015052686
0.0021926829
0.0023267177
0.0022664268
0.0020558162
0.0020194734
0.0019658395
0.0019138539
0.0020147341
0.0022651271
0.0022937553
0.0019317656
0.0015291671
0.0012892674
0.0012010725
0.0011900688
0.0011867246
0.001211136
0.001278088
0.0012858275
0.0010654737
0.00066238448
0.00033962247
0.00020067163
0.00017284532
0.00016732008
0.000164834
0.00016309114
0.00016166426
0.00016034055
0.00015883804
0.00015725838
0.00015584267
0.00015466825
0.00015371592
0.00015294824
0.00015232826
0.00015182821
0.0001514242
0.00015110764
0.00015086007
0.00015068973
0.00015053106
0.0021217745
0.002201127
0.002281978
0.0022254473
0.0021094088
0.0020283777
0.0019247062
0.0019766079
0.0022257581
0.0023234985
0.0020120424
0.0015911194
0.0013129618
0.0012010602
0.0011712601
0.0011511224
0.0011470717
0.0012008657
0.0012755514
0.0011998981
0.0008701792
0.00048362212
0.00025242955
0.00018279655
0.00017009578
0.00016642362
0.0001642771
0.00016267579
0.00016133633
0.00016007877
0.00015866263
0.00015715585
0.00015577781
0.00015462526
0.00015368672
0.00015292864
0.00015231521
0.00015182009
0.00015141995
0.00015110641
0.00015086102
0.00015069255
0.00015053263
0.0022075416
0.0021944616
0.0022120858
0.0022409398
0.0021904652
0.0020977196
0.0019397229
0.0019374471
0.002172641
0.0023263642
0.0020736547
0.0016489906
0.0013429645
0.0012012707
0.0011609201
0.001130839
0.001107952
0.0011362721
0.0012222098
0.001251859
0.0010456256
0.00065549719
0.00034405058
0.00020614257
0.0001751682
0.00016854521
0.00016568238
0.00016375949
0.00016226963
0.00016100579
0.00015980364
0.00015846682
0.00015703575
0.00015570007
0.00015457299
0.00015365091
0.00015290398
0.0001522983
0.00015180895
0.00015141323
0.00015110306
0.00015086008
0.0001506935
0.0001505324
0.0021701603
0.0023111098
0.0022774542
0.0022232959
0.0022060292
0.0021611525
0.0019566608
0.0018977152
0.0021078132
0.0023040676
0.0021125302
0.0016991475
0.001372219
0.0012062868
0.0011540948
0.0011188733
0.0010877623
0.0010939165
0.0011631239
0.0012444687
0.0011613944
0.00083210281
0.00046765642
0.00025228275
0.00018561947
0.00017176233
0.00016748481
0.0001650338
0.00016327234
0.00016187455
0.00016067746
0.00015952036
0.00015825683
0.00015690142
0.00015561167
0.00015451299
0.00015360955
0.00015287488
0.00015227797
0.0001517951
0.00015140426
0.00015109777
0.00015085738
0.00015069274
0.00015053063
0.0019736677
0.0022409708
0.0024145797
0.0023484767
0.0022363571
0.0021788309
0.0021366596
0.0018549898
0.0020392084
0.0022565136
0.002127112
0.0017382699
0.001400174
0.0012132803
0.0011490629
0.0011165713
0.0010811193
0.0010713866
0.0011164212
0.0012090742
0.0012162708
0.00098596755
0.00060931854
0.00032608481
0.00020637463
0.00017727827
0.0001699748
0.0001666473
0.00016444907
0.00016281187
0.00016149297
0.00016035491
0.00015923376
0.00015803877
0.0001567565
0.00015551498
0.00015444692
0.00015356336
0.000152842
0.00015225466
0.00015177882
0.00015139326
0.00015109069
0.00015085306
0.0001506904
0.0001505275
0.001812868
0.0019883048
0.002305068
0.0025088735
0.0024150925
0.0022523859
0.0021599291
0.0021158183
0.0019467262
0.0021939174
0.0021165788
0.0017638196
0.0014260457
0.0012232565
0.0011528267
0.0011182923
0.0010858423
0.0010630196
0.0010864948
0.0011690001
0.0012277306
0.0010983257
0.00075535901
0.00042455646
0.00024231326
0.00018717015
0.00017371561
0.00016882092
0.00016593506
0.00016391271
0.00016237615
0.00016112659
0.00016003878
0.00015894814
0.00015781805
0.0001566046
0.00015541227
0.00015437624
0.00015351318
0.00015280595
0.0001522288
0.00015176042
0.00015138044
0.00015108201
0.00015084728
0.00015068666
0.00015052316
0.0018521896
0.0017737381
0.0019975248
0.0023567549
0.0025868322
0.0024752346
0.0022720017
0.0021489758
0.0020974811
0.0021050943
0.0020822546
0.0017745484
0.0014482193
0.0012367321
0.001161262
0.0011316404
0.0010928986
0.0010624568
0.0010716775
0.0011367542
0.0012158419
0.0011674817
0.00088956821
0.00053649851
0.00029593399
0.000204118
0.00017969575
0.00017192496
0.00016794589
0.00016530673
0.00016341512
0.00016196353
0.00016077581
0.00015972385
0.00015866719
0.00015759895
0.00015644905
0.00015530588
0.00015430187
0.00015345983
0.0001527673
0.00015220078
0.0001517402
0.00015136605
0.00015107192
0.00015084019
0.00015068168
0.00015051779
0.002000839
0.0017644444
0.0017370565
0.0019982231
0.0023913422
0.0026454908
0.0025283892
0.0022945167
0.0021446642
0.0020804295
0.0020277947
0.0017704143
0.0014654964
0.0012534897
0.0011767782
0.0011508238
0.0011103077
0.0010663516
0.0010610081
0.0011192855
0.0011969083
0.0012017922
0.0010005895
0.00065246137
0.00036645681
0.00023045674
0.00018931673
0.00017662706
0.00017082079
0.00016721803
0.00016473793
0.00016294941
0.00016157212
0.00016043905
0.00015940864
0.0001583941
0.0001573847
0.00015629279
0.0001551974
0.00015422484
0.00015340406
0.00015272656
0.00015217098
0.00015171844
0.00015135029
0.00015106059
0.00015083197
0.00015067562
0.00015051155
0.0019574203
0.0018922525
0.0016861602
0.001700824
0.001988439
0.0024054785
0.0026830086
0.0025722325
0.002317925
0.0021448504
0.0020633517
0.0017531378
0.0014776364
0.0012735662
0.0012002377
0.0011797243
0.0011356684
0.0010795704
0.0010520701
0.0010982537
0.0011916468
0.0012159763
0.0010826538
0.00076518248
0.00045016373
0.00026714544
0.00020386396
0.00018392608
0.00017517618
0.000170017
0.00016658063
0.00016421232
0.00016251009
0.00016119927
0.00016011128
0.00015909741
0.0001581315
0.00015717753
0.00015613843
0.00015508802
0.00015414609
0.00015334652
0.00015268421
0.00015213975
0.0001516954
0.00015133337
0.0001510482
0.00015082278
0.00015066867
0.00015050459
0.0017253633
0.0018777642
0.0017880294
0.0016165266
0.0016641576
0.0019672172
0.0023979706
0.0026985602
0.0026032777
0.0023395342
0.0021469584
0.0020449332
0.0014849894
0.0012973533
0.0012325673
0.0012197765
0.0011709527
0.0011012759
0.0010521734
0.0010746363
0.0011716376
0.0012347612
0.0011431805
0.00086644882
0.00054053773
0.00031449889
0.00022394416
0.00019457058
0.00018194679
0.00017435505
0.00016935981
0.00016599997
0.00016371796
0.00016209219
0.00016084065
0.0001597806
0.00015879458
0.00015788143
0.00015697906
0.00015598742
0.00015497885
0.00015406645
0.00015328779
0.00015264066
0.00015210738
0.00015167131
0.0001513155
0.00015103495
0.00015081282
0.00015066097
0.00015049697
0.0014888646
0.0016914888
0.0017943295
0.0016931947
0.0015554946
0.0016267954
0.0019347774
0.0023685625
0.0026891885
0.0026184727
0.002355553
0.0021455569
0.0020230624
0.0013255084
0.0012745801
0.0012719583
0.0012175773
0.001130843
0.0010604941
0.0010582572
0.0011419554
0.0012416356
0.0011938075
0.00095565655
0.00062986186
0.00037211707
0.00025073384
0.0002086485
0.00019158728
0.00018118264
0.0001737832
0.00016876987
0.00016545152
0.00016324549
0.00016169011
0.00016048809
0.00015944264
0.00015850428
0.00015764544
0.00015679003
0.00015584083
0.0001548708
0.00015398655
0.00015322836
0.00015259627
0.00015207416
0.0001516464
0.00015129688
0.00015102104
0.00015080222
0.00015065242
0.00015048686
0.0013587247
0.0014916821
0.001653576
0.0017132682
0.0016104794
0.0015029148
0.0015890098
0.0018921361
0.0023179599
0.0026533322
0.0026137705
0.0023580031
0.0021391654
0.0019947739
0.0013270564
0.0013363128
0.0012761293
0.001168608
0.0010745054
0.0010504545
0.0011141566
0.0012280116
0.0012483439
0.0010368835
0.00071652846
0.00043860864
0.00028530751
0.00022783544
0.00020410155
0.0001905814
0.00018078687
0.00017327097
0.00016819404
0.00016491673
0.00016278639
0.00016129577
0.00016012621
0.00015910828
0.00015822977
0.00015742435
0.0001566106
0.0001556993
0.00015476447
0.00015390692
0.00015316861
0.00015255133
0.00015204032
0.00015162092
0.00015127777
0.00015100662
0.00015079072
0.00015064035
0.00015047588
0.0013897246
0.0013978778
0.0014947792
0.0016151415
0.0016398749
0.0015411121
0.0014585407
0.0015515957
0.0018412441
0.0022483275
0.002589903
0.0025826646
0.0023465083
0.0021241982
0.0019573957
0.0014118979
0.0013452915
0.0012138647
0.0010944538
0.0010468664
0.0010944953
0.0012040593
0.001275825
0.0011415828
0.00080170689
0.00051124097
0.00032847295
0.0002538881
0.00022214841
0.00020296543
0.00018984809
0.00018034558
0.0001726944
0.00016759344
0.00016438121
0.00016233117
0.00016089576
0.00015974279
0.0001587865
0.00015797351
0.00015721835
0.00015644066
0.00015556315
0.0001546603
0.00015382794
0.00015310888
0.00015250613
0.00015200615
0.00015159513
0.00015125829
0.00015099114
0.0001507728
0.00015062753
0.00015046429
0.0014954579
0.0014614903
0.0014411269
0.0014993244
0.0015794777
0.0015775793
0.0014852122
0.0014222112
0.0015155032
0.0017845183
0.0021643923
0.0025005843
0.0025291225
0.0023196643
0.002096422
0.001908011
0.0014212623
0.0012646344
0.0011197119
0.0010479308
0.0010768791
0.0011840276
0.0012792362
0.0012242036
0.00092399818
0.00058520525
0.00038019018
0.00028761298
0.00024813223
0.00022259475
0.00020247977
0.0001887566
0.00017959749
0.00017196824
0.0001669426
0.00016383061
0.00016186258
0.00016046702
0.00015935815
0.0001584844
0.00015773707
0.00015702713
0.00015627995
0.00015543241
0.00015455851
0.00015374991
0.00015304943
0.00015246098
0.00015197195
0.00015156916
0.00015123757
0.00015096554
0.00015075425
0.00015061422
0.00015045216
0.0014972989
0.001580709
0.0015354461
0.0014854428
0.0015063132
0.0015494006
0.0015279512
0.0014422384
0.001393423
0.0014811185
0.0017246133
0.0020733725
0.0024064026
0.0024550635
0.0022728168
0.0020509504
0.0018437102
0.0013184194
0.0011492619
0.0010531271
0.001062827
0.0011630441
0.0012720016
0.0012784588
0.0010412593
0.00069057782
0.00043868845
0.00032803761
0.00028190497
0.00025251931
0.00022499185
0.00020155368
0.00018701675
0.00017837617
0.00017104776
0.00016620621
0.0001632363
0.00016135897
0.00016000091
0.0001589908
0.00015820705
0.00015752103
0.00015685
0.00015612808
0.00015530695
0.00015445927
0.00015367306
0.00015299059
0.00015241617
0.00015193782
0.00015154176
0.00015120133
0.00015093964
0.00015073558
0.00015060045
0.0001504396
0.0013718034
0.0015654829
0.0016567177
0.0016025886
0.0015293496
0.0015165432
0.0015267003
0.0014909801
0.0014110043
0.0013708799
0.0014480088
0.0016681645
0.0019922462
0.0022959653
0.0023570201
0.0022006445
0.0019832338
0.0017624481
0.0011814578
0.0010621764
0.0010521255
0.0011433239
0.0012598677
0.0013049559
0.0011436118
0.00080046562
0.00051792354
0.00037207274
0.00031969756
0.00028992678
0.0002605342
0.00022773448
0.00019974725
0.00018462223
0.00017659145
0.00016986795
0.00016534934
0.00016258295
0.00016080418
0.00015953989
0.00015865325
0.00015795756
0.00015732504
0.00015668584
0.00015598452
0.00015518651
0.00015436266
0.00015359768
0.00015293264
0.00015237181
0.00015190209
0.00015149199
0.00015116524
0.00015091414
0.00015071678
0.00015058632
0.00015042666
0.0012141705
0.0014207439
0.0016203271
0.0017141521
0.0016582672
0.0015719844
0.0015301392
0.001511891
0.0014653454
0.0013887835
0.0013536243
0.0014206849
0.0016189632
0.0019020459
0.002166625
0.0022318355
0.0020993221
0.0018903792
0.0016638532
0.0010746707
0.0010443789
0.0011257131
0.0012459115
0.0013107563
0.0012203088
0.00090843582
0.00060191267
0.00042355994
0.00035680156
0.00032737329
0.00030072568
0.00026873876
0.00023005315
0.00019706519
0.00018176249
0.00017431809
0.00016845146
0.0001643882
0.00016187427
0.00016021546
0.00015911298
0.00015835387
0.00015773709
0.0001571478
0.0001565333
0.00015584865
0.00015507083
0.00015426882
0.000153524
0.0001528757
0.00015232571
0.00015183504
0.00015144307
0.00015113028
0.00015088893
0.00015069796
0.00015057188
0.00015041346
0.0010898606
0.0012443793
0.0014614816
0.0016567667
0.0017468254
0.0017034974
0.0016120347
0.001546191
0.0015040486
0.0014483063
0.0013767303
0.0013365026
0.0013966903
0.0015671771
0.0018011348
0.0020182562
0.002078877
0.0019673135
0.0017724332
0.0015474635
0.001039925
0.0011084709
0.0012362231
0.0013036117
0.0012676265
0.0010059396
0.00068665947
0.00048167904
0.00039630793
0.00037936789
0.00035232964
0.0003141322
0.00027384078
0.00023155628
0.00019377006
0.00017851897
0.00017188433
0.00016691457
0.00016337757
0.00016113754
0.00015966679
0.00015873733
0.00015809783
0.00015754472
0.00015698716
0.00015639089
0.00015571981
0.0001549597
0.00015417785
0.0001534521
0.00015281693
0.00015223703
0.00015176982
0.00015139622
0.00015109621
0.00015086414
0.00015067915
0.0001505572
0.00015040007
0.0010392356
0.0011064446
0.0012701129
0.0014876253
0.0016743644
0.0017650162
0.0017381093
0.0016463044
0.0015622588
0.0015020983
0.0014401235
0.0013601905
0.0013227425
0.0013746883
0.0015095208
0.00168887
0.0018521446
0.0019001171
0.0018068259
0.0016329492
0.0014090434
0.0010920597
0.0012224803
0.0012977187
0.0012863065
0.0010839849
0.00076809232
0.00054095935
0.00044248612
0.00043561866
0.00046005526
0.00041954966
0.00034915774
0.00028248915
0.00023056329
0.00018922748
0.00017519524
0.00016957108
0.00016540328
0.0001623967
0.00016043831
0.00015919578
0.00015842481
0.00015788724
0.00015737743
0.00015684063
0.00015625727
0.00015559736
0.00015485295
0.00015408969
0.00015337844
0.00015270189
0.00015215153
0.00015170795
0.00015135108
0.00015106319
0.00015083977
0.00015066043
0.00015054236
0.00015038658
0.0010771494
0.0010427198
0.0011227432
0.0012873138
0.001496323
0.0016719979
0.0017652048
0.0017564327
0.0016702421
0.0015777887
0.0015048415
0.0014252603
0.0013481283
0.0013127847
0.001350708
0.0014447827
0.001564138
0.0016703554
0.0017001081
0.0016251146
0.0014711406
0.0012405832
0.0012033662
0.0012910908
0.0012829519
0.0011367118
0.0008406751
0.00059817231
0.00048816647
0.00049568633
0.00058425968
0.00064751434
0.00056862721
0.00043090627
0.00030241093
0.00022548916
0.00018364922
0.00017216175
0.00016756061
0.00016405698
0.00016153212
0.00015986849
0.00015882728
0.0001581873
0.00015771863
0.00015723078
0.0001567057
0.00015613123
0.0001554807
0.00015475021
0.00015400007
0.00015323353
0.00015259164
0.00015207106
0.0001516489
0.00015130781
0.00015103119
0.00015081587
0.00015064186
0.00015052742
0.00015037304
0.001178494
0.0010656207
0.0010508789
0.0011357431
0.0012932585
0.0014859123
0.0016474723
0.0017432341
0.0017542627
0.0016848996
0.0015914877
0.001498315
0.0014122302
0.001337084
0.0013049843
0.0013241462
0.001370025
0.0014253532
0.0014755163
0.0014866839
0.0014283721
0.0012820845
0.0010302538
0.0012743201
0.0012676515
0.0011611632
0.00089870003
0.0006498231
0.0005296391
0.00054776075
0.00068811802
0.00091892893
0.00099003955
0.00083110875
0.00054816982
0.00031957884
0.00021633735
0.00017797183
0.00016968866
0.00016594554
0.00016298206
0.00016085809
0.0001594573
0.00015857707
0.00015803117
0.00015758216
0.0001570997
0.00015657991
0.00015601172
0.00015536903
0.00015464657
0.00015382657
0.00015309469
0.00015248843
0.00015199489
0.00015159281
0.00015126631
0.00015100023
0.00015079248
0.00015062351
0.00015051245
0.00015035946
0.001246447
0.0011513112
0.001061374
0.0010627351
0.0011440382
0.0012862362
0.0014562421
0.0016017312
0.0016997004
0.0017346787
0.0016873106
0.0015876342
0.0014861458
0.0013989049
0.0013284178
0.0012990443
0.0012920526
0.0012806497
0.0012700337
0.0012702774
0.0012656946
0.001210386
0.0010550232
0.00078770509
0.0012436321
0.0011595261
0.00093750098
0.00069219166
0.00056360243
0.00058576263
0.0007632279
0.0010806232
0.0014746347
0.0014868904
0.0011294612
0.00063161232
0.00031355553
0.00020333632
0.00017325979
0.00016787333
0.00016474561
0.00016220676
0.0001603996
0.00015920389
0.00015844815
0.00015793032
0.00015746576
0.00015697897
0.00015646093
0.00015589747
0.00015525705
0.00015445418
0.00015365904
0.00015296481
0.00015239137
0.00015192311
0.00015153949
0.00015122656
0.00015097033
0.00015076965
0.00015060542
0.00015049741
0.0001503458
0.0012094187
0.0012095394
0.0011286574
0.0010647873
0.0010771557
0.0011473195
0.0012661332
0.0014086733
0.0015368378
0.0016366258
0.0016923183
0.0016606046
0.0015660718
0.0014709575
0.0013853706
0.0013234792
0.0012939506
0.0012482814
0.001169435
0.0010954271
0.0010577016
0.0010387737
0.00096962808
0.00080134836
0.00055523457
0.0011378503
0.00095432038
0.00072228738
0.00058786861
0.00060739901
0.0007997189
0.0011735181
0.0016655319
0.0021256119
0.0019581096
0.0013078
0.00062748355
0.00028226755
0.00018946922
0.00017013702
0.00016665458
0.0001639249
0.00016170103
0.00016012755
0.00015907165
0.0001583709
0.0001578434
0.00015735839
0.00015686403
0.00015634679
0.00015578317
0.00015506018
0.00015426582
0.00015350108
0.000152843
0.00015230052
0.0001518554
0.00015148888
0.00015118855
0.00015094153
0.0001507474
0.00015058745
0.00015048241
0.00015033212
0.0011015279
0.0011665155
0.0011686303
0.0011125036
0.0010757831
0.0010931453
0.001145327
0.0012336784
0.0013455645
0.0014561414
0.0015541965
0.001618207
0.0016092439
0.0015402844
0.0014524271
0.0013739136
0.0013230979
0.001284987
0.0011803623
0.0010284986
0.00090303231
0.00084440501
0.00081069047
0.0007253105
0.00056311196
0.0003765339
0.00094971452
0.00073838919
0.00060174955
0.00061388507
0.00080213318
0.0011818166
0.0017340327
0.0022765112
0.0026076449
0.0022036645
0.0012979598
0.00054077284
0.00024090467
0.00017785241
0.00016853712
0.00016589147
0.00016340963
0.0001613983
0.00015997983
0.00015899938
0.00015830711
0.00015775759
0.00015725262
0.00015675218
0.00015623249
0.00015558871
0.00015486542
0.00015408533
0.00015335217
0.00015272946
0.00015221543
0.00015179161
0.00015144089
0.00015115226
0.0001509138
0.00015072544
0.00015056961
0.00015046753
0.00015031847
0.00092730069
0.0010571346
0.0011162327
0.0011284809
0.0011043774
0.0010939236
0.0011101086
0.001138025
0.001190948
0.0012711456
0.0013660779
0.0014574273
0.0015393905
0.0015593711
0.0015084817
0.0014313979
0.0013678938
0.0013271094
0.0012562188
0.0010728835
0.00085358729
0.00070583585