/*--------------------------------*- C++ -*----------------------------------*\
  =========                 |
  \\      /  F ield         | OpenFOAM: The Open Source CFD Toolbox
   \\    /   O peration     | Website:  https://openfoam.org
    \\  /    A nd           | Version:  8
     \\/     M anipulation  |
\*---------------------------------------------------------------------------*/
FoamFile
{
    version     2.0;
    format      ascii;
    class       volScalarField;
    location    "200.966377299857271";
    object      nut;
}
// * * * * * * * * * * * * * * * * * * * * * * * * * * * * * * * * * * * * * //

dimensions      [0 2 -1 0 0 0 0];

internalField   nonuniform List<scalar> 
9200
(
0.033324606
0.028938898
0.022417039
0.026566805
0.021377009
0.026267077
0.025026045
0.021231734
0.024772593
0.025312949
0.024809589
0.020950418
0.02456948
0.023876149
0.026946702
0.02591516
0.021282519
0.024023749
0.023530447
0.025268844
0.027928262
0.027804881
0.022450818
0.024054054
0.022651722
0.024802072
0.026150403
0.029838955
0.031823375
0.0266792
0.02452654
0.02192131
0.023537213
0.025633882
0.027947425
0.032068275
0.031181522
0.031404409
0.025885498
0.021266204
0.022077585
0.024167279
0.027515981
0.030137347
0.033307123
0.029789318
0.031275986
0.027894537
0.020461263
0.020254882
0.022199645
0.026062007
0.029908083
0.032892939
0.033304354
0.027540631
0.029976384
0.025980773
0.019051665
0.018032217
0.019561683
0.023999114
0.02863786
0.033051457
0.033278578
0.033302804
0.024025321
0.02302888
0.018541737
0.016381745
0.015225265
0.016555201
0.020982359
0.026834732
0.032285956
0.033240867
0.033276798
0.033302317
0.014618086
0.010809469
0.011621024
0.012361645
0.012191687
0.01349682
0.017455834
0.023955089
0.031314123
0.033176625
0.033239714
0.033276176
0.033302556
0.013937616
0.0068131981
0.0075788763
0.0085838591
0.009332148
0.01073713
0.014015332
0.020307499
0.029400006
0.033073918
0.033175813
0.033239725
0.033276323
0.033303172
0.010121362
0.0064707841
0.0053927338
0.0060002311
0.0068206282
0.008337305
0.010978131
0.016383328
0.026195023
0.03291387
0.033073184
0.033176024
0.033240419
0.033276805
0.03330388
0.0077612088
0.010210203
0.0049095525
0.0044299359
0.0049309722
0.0062054454
0.008325637
0.01255344
0.021557732
0.03266796
0.032912578
0.033072992
0.033176781
0.033241267
0.033277288
0.033304498
0.0064305767
0.0082841567
0.0075128622
0.0040838021
0.0037204914
0.0045632656
0.0061702165
0.0092254291
0.016085179
0.032280972
0.032666141
0.032910535
0.033073164
0.03317749
0.033241897
0.033277587
0.033304952
0.0057021487
0.0065344251
0.0081279995
0.0065745527
0.0034655656
0.0034656837
0.0045509825
0.0066848484
0.01126924
0.023460548
0.032283142
0.032660739
0.032908543
0.03307315
0.033177768
0.033242155
0.033277668
0.033305264
0.0052944385
0.0055345145
0.0061584883
0.007571375
0.0059081599
0.0031768821
0.0034278755
0.0048441105
0.0077821025
0.014819169
0.031675736
0.032275806
0.032654747
0.032906489
0.033072637
0.033177559
0.033242098
0.033277614
0.033305524
0.005066491
0.0049782383
0.0050655782
0.0056343865
0.0070443285
0.0054229477
0.0029805919
0.0035615355
0.005422768
0.0093987525
0.01973865
0.031679289
0.032266639
0.032649305
0.032904366
0.033071746
0.033177084
0.033241928
0.033277576
0.03330584
0.0049525098
0.0046636345
0.0044844676
0.0046214973
0.0052430368
0.0068506202
0.0045918555
0.0028594323
0.0038576279
0.0061722534
0.010987768
0.02198746
0.031675653
0.032259444
0.032645218
0.032902619
0.03307095
0.033176734
0.033241914
0.033277723
0.033306313
0.0049217811
0.004482533
0.0041559486
0.0041027927
0.0043471054
0.0051122639
0.0071080165
0.0035387938
0.0028942348
0.0042185215
0.0067714107
0.011498401
0.019167137
0.026665932
0.031553254
0.032643569
0.032902039
0.03307089
0.033176936
0.033242314
0.033278196
0.03330702
0.004955355
0.0043892602
0.0039479414
0.0038044429
0.0038978045
0.0042652182
0.0052781543
0.0078987914
0.0027808146
0.0030255462
0.0044663349
0.0069107452
0.010804761
0.015856563
0.021360843
0.027233654
0.032645362
0.03290352
0.033072168
0.033178048
0.03324332
0.033279086
0.033308002
0.0050356314
0.0043628618
0.003818166
0.0035983594
0.0036378973
0.0038436477
0.0043752968
0.005799767
0.0046545838
0.0024568043
0.0031100688
0.0044902271
0.0066421961
0.0097184523
0.013639642
0.018836777
0.025511473
0.032651528
0.032907789
0.033075196
0.033180281
0.033245025
0.033280422
0.033309261
0.0051458752
0.0043889501
0.0037496898
0.0034613198
0.0034487573
0.0036041634
0.003927701
0.0047167616
0.0067310246
0.0029099059
0.0023420719
0.0030793813
0.0043360558
0.0062038399
0.0087542218
0.01239014
0.017701216
0.025014847
0.032662701
0.032915161
0.033080117
0.033183672
0.033247423
0.033282174
0.033310768
0.0052713172
0.0044539903
0.0037318536
0.0033813215
0.003322354
0.0034460808
0.0036818254
0.0041741132
0.0053533584
0.0052345643
0.0021753155
0.0022407047
0.0029603527
0.004107829
0.0057504185
0.0081154591
0.011758746
0.017112653
0.025029846
0.032678779
0.032925454
0.033086775
0.033188085
0.033250415
0.033284265
0.033312467
0.0054002555
0.0045451953
0.0037528506
0.0033529342
0.0032597565
0.0033454593
0.0035359021
0.0038819265
0.0046260898
0.0062548092
0.0028461333
0.0018530382
0.0021203638
0.0028142046
0.0038660252
0.0054071545
0.00775989
0.011371409
0.016699765
0.025172662
0.032698785
0.032938023
0.03309475
0.033193245
0.033253831
0.033286587
0.033314289
0.0055242906
0.0046521603
0.0038012849
0.0033615006
0.0032538102
0.003310426
0.0034574847
0.003713926
0.0042349934
0.0052715619
0.004857728
0.0019477866
0.0016574395
0.0019998635
0.0026723082
0.0036745957
0.0051987832
0.0075378979
0.011065325
0.016349096
0.025276443
0.032721003
0.032951861
0.033103432
0.033198788
0.033257458
0.033289015
0.033316161
0.0056379687
0.0047662585
0.0038681476
0.0033944027
0.0032814245
0.0033293685
0.0034406292
0.0036281649
0.0040083022
0.004710097
0.0058927584
0.0027074134
0.0015714709
0.0015140365
0.001892896
0.002553322
0.0035528727
0.0050758449
0.007377488
0.010794973
0.016056289
0.025253673
0.032743298
0.032965746
0.033112116
0.033204308
0.03326107
0.033291429
0.033318006
0.0057389894
0.004881308
0.003946644
0.0034423357
0.0033270229
0.0033790938
0.0034737343
0.0036089935
0.0038763141
0.0043706968
0.0050694648
0.0047027237
0.0020394214
0.0013824556
0.0013994968
0.0018103629
0.0024807723
0.0034907979
0.0050041939
0.0072449732
0.010536533
0.01578327
0.024741068
0.032763425
0.032978433
0.033120095
0.033209405
0.033264459
0.033293708
0.03331975
0.0058359776
0.0049944247
0.0040317367
0.0034995005
0.0033804166
0.0034401216
0.0035327111
0.003637967
0.0038119602
0.0041484704
0.0045299273
0.0048794488
0.0038066888
0.0019277042
0.001274443
0.0013246185
0.0017677383
0.0024559888
0.0034705283
0.0049555272
0.0071004026
0.01028494
0.015358096
0.023356494
0.032779331
0.032988822
0.033126742
0.033213745
0.033267422
0.033295741
0.033321325
0.0059147001
0.0051192381
0.0041206545
0.0035622115
0.0034369285
0.0035013247
0.0035970714
0.0036921878
0.0037972136
0.0039986796
0.0041540024
0.0041119265
0.0042201441
0.0044776812
0.0021252537
0.0011979013
0.0012958147
0.001765713
0.002464627
0.003467827
0.0048974708
0.0069394174
0.010004434
0.014656057
0.021370267
0.030428874
0.032996008
0.033131581
0.033217052
0.033269793
0.033297436
0.033322669
0.0059691452
0.005237633
0.0042228413
0.0036289065
0.0034943176
0.0035581428
0.003656031
0.0037535676
0.0038151995
0.0039042175
0.0038877848
0.0036418352
0.0034314513
0.0035775814
0.0042335889
0.0025278052
0.001143089
0.0013020827
0.0017868746
0.0024838532
0.0034586535
0.0048198857
0.0067830606
0.0096874453
0.013837185
0.019399116
0.026452669
0.032999349
0.033134306
0.033219125
0.033271477
0.033298726
0.033323733
0.0059991844
0.0053417842
0.0043319075
0.0037042772
0.0035519725
0.0036093714
0.0037052265
0.0038113955
0.0038515688
0.0038519545
0.003707988
0.003321248
0.0029818665
0.0029114595
0.0031342232
0.0037579138
0.0027261326
0.0010852427
0.0013246009
0.0018146854
0.0025006985
0.003435308
0.0047481556
0.006655152
0.0093815323
0.01307427
0.017746364
0.023441118
0.029863172
0.033134772
0.033219895
0.033272424
0.033299566
0.033324481
0.0060054553
0.0054274139
0.0044403213
0.0037895147
0.0036136789
0.0036559692
0.0037444046
0.0038603096
0.0038953271
0.0038300418
0.0035908473
0.0031121135
0.0026994855
0.0025338158
0.002580639
0.0028447806
0.0035366919
0.0023787417
0.0010444277
0.001354505
0.0018419833
0.0025067909
0.0034148596
0.0047111912
0.0065537378
0.0090824671
0.012367864
0.01636884
0.021143115
0.02642715
0.032273034
0.033219404
0.033272622
0.033299936
0.033324889
0.0059893171
0.0054917004
0.0045448655
0.0038817287
0.0036800045
0.0037006143
0.0037749109
0.0038994718
0.0039392741
0.0038286334
0.0035172131
0.0029754481
0.0025138149
0.0023049913
0.0022847588
0.0023899392
0.0027101072
0.0035471676
0.0016845648
0.001046462
0.0013855148
0.0018623713
0.0025126731
0.0034192501
0.0046951549
0.0064461047
0.0087668462
0.011695667
0.015181968
0.019282081
0.023892787
0.029057156
0.03321775
0.033272112
0.033299837
0.03332495
0.0059527155
0.0055330811
0.0046424881
0.0039809005
0.0037575115
0.0037432859
0.0037945561
0.0039298124
0.0039807512
0.0038397517
0.0034734274
0.002885668
0.0023869896
0.0021444511
0.0020972646
0.0021525366
0.00230724
0.0027109293
0.0037980029
0.0011236456
0.0010698881
0.0014120479
0.0018824119
0.0025351088
0.0034380587
0.0046721986
0.0063240164
0.008456654
0.011085404
0.014182839
0.017792838
0.021948735
0.026725673
0.032076437
0.033270956
0.033299293
0.033324671
0.0058984205
0.0055513815
0.0047305915
0.004086259
0.0038462622
0.0037942587
0.003803616
0.0039378753
0.0040236243
0.003858438
0.003449275
0.0028275445
0.0022971733
0.0020248966
0.0019434451
0.0019852501
0.0020907439
0.0023078943
0.0028458676
0.0038212291
0.00090045954
0.0010948511
0.0014371096
0.0019101999
0.0025646693
0.0034520201
0.004642797
0.0062037883
0.0081764066
0.010564495
0.013359069
0.016619817
0.020397032
0.02489635
0.029790539
0.033269238
0.033298344
0.033324073
0.0058306045
0.0055477826
0.0048073871
0.0041965925
0.0039473388
0.0038538622
0.0038134713
0.0039237993
0.0040526146
0.0038863429
0.0034395179
0.0027916145
0.0022349679
0.0019322008
0.0018189588
0.0018262746
0.0019242424
0.0020871808
0.0023903343
0.0031479238
0.0015819455
0.00087793452
0.0011199156
0.0014649621
0.0019410366
0.0025910381
0.0034636547
0.0046168747
0.0060996003
0.0079365033
0.010130132
0.012685373
0.015685652
0.01918004
0.023330671
0.027970066
0.033137253
0.03329704
0.033323185
0.0057548466
0.0055247657
0.0048721548
0.0043106699
0.0040607133
0.003923487
0.0038255931
0.0039009205
0.004051656
0.0039405766
0.0034423213
0.0027707928
0.0021946685
0.0018666513
0.0017198911
0.0016853522
0.0017606873
0.0019149039
0.0021478443
0.0025742689
0.0036690896
0.00086590048
0.00089441338
0.0011450425
0.0014933223
0.0019697592
0.0026173324
0.0034800716
0.0046020473
0.0060177768
0.0077398289
0.0097734511
0.012141802
0.014929941
0.018196746
0.022075193
0.026407348
0.031105771
0.03329544
0.033322048
0.0054860143
0.0056758144
0.0049253322
0.0044273637
0.004185544
0.0040031281
0.0038405262
0.0038700204
0.0040327883
0.0039772604
0.0034973857
0.002765227
0.0021690776
0.0018245474
0.001655177
0.0015819937
0.0016125734
0.0017497776
0.0019707774
0.0022821651
0.0029008346
0.0019479086
0.00074798955
0.0009141419
0.0011691417
0.0015195652
0.0019987769
0.0026486436
0.0035061602
0.0046033081
0.0059613058
0.0075859429
0.0094893132
0.011704431
0.014314271
0.017376897
0.021038035
0.025101003
0.029453385
0.033293608
0.033320705
0.0049689297
0.0054366053
0.0055963364
0.0045459276
0.0043201917
0.0040915577
0.003858603
0.0038310994
0.003997446
0.0039935359
0.0035521336
0.0028111198
0.0021594109
0.0017992245
0.0016191783
0.0015218362
0.0015045017
0.0016008538
0.0018086058
0.0020947491
0.0025061337
0.003405939
0.00085349987
0.00075002565
0.00093283512
0.0011908643
0.0015456233
0.002032198
0.0026889729
0.0035463718
0.0046245252
0.0059325302
0.0074739993
0.0092663217
0.011349367
0.013808162
0.016694613
0.020139401
0.023991036
0.028037231
0.031707874
0.032982783
0.0046662922
0.0050064886
0.005381879
0.0055184982
0.0044621957
0.0041862384
0.0038788581
0.003785486
0.0039441362
0.0039890762
0.003597416
0.0028664702
0.0021822461
0.0017903617
0.0016050617
0.0014973482
0.0014436721
0.0014871305
0.0016594646
0.0019350916
0.0022838395
0.002849457
0.0019108186
0.00065463778
0.00076071477
0.00094921597
0.0012115795
0.0015747831
0.00207349
0.002742607
0.0036049615
0.0046684074
0.0059318871
0.00739857
0.009092595
0.011058717
0.013384537
0.016121795
0.019379073
0.023011547
0.026806751
0.030165791
0.031324937
0.0046082566
0.0047902368
0.0050424439
0.0053255803
0.0054436475
0.0042834791
0.0038991607
0.0037334691
0.0038748504
0.0039627229
0.003626805
0.0029201731
0.0022215608
0.0017972409
0.0016056161
0.0014969246
0.0014217119
0.0014163308
0.0015348191
0.001784979
0.0021222847
0.0025442677
0.0033047044
0.00078833898
0.00063857291
0.0007708141
0.00096383395
0.0012338387
0.0016101646
0.0021267645
0.002814107
0.0036854611
0.0047362943
0.0059573984
0.0073534007
0.0089569144
0.01081863
0.013026126
0.015630338
0.018728071
0.022165432
0.02574266
0.028842738
0.029928639
0.0043783539
0.0047537354
0.0049206959
0.0050723867
0.0052714293
0.0053720713
0.003916516
0.0036752943
0.0037898404
0.0039143394
0.0036364688
0.0029679139
0.002265515
0.0018201529
0.0016154662
0.0015095132
0.001426076
0.0013835024
0.0014441408
0.0016496274
0.0019753185
0.0023570642
0.0028854676
0.001527708
0.000575903
0.00063972843
0.00077924923
0.00097860646
0.0012604986
0.0016556148
0.0021968406
0.0029078985
0.0037906245
0.0048278534
0.0060048423
0.0073314591
0.0088499003
0.010617721
0.012721245
0.015205268
0.018156673
0.021422052
0.024796544
0.027674413
0.028714865
0.0039287063
0.0044652142
0.0048918383
0.0050296506
0.0050991157
0.0052221218
0.0053032471
0.0036073409
0.0036974886
0.0038422725
0.0036247248
0.0030057133
0.0023121673
0.0018502267
0.0016381414
0.0015337317
0.0014472429
0.0013789161
0.0013878836
0.0015379935
0.0018351236
0.0022128263
0.0026335233
0.0032481598
0.00068032728
0.00054663318
0.00064148146
0.00078690741
0.00099606008
0.0012950878
0.0017158704
0.0022889065
0.0030282454
0.0039220788
0.004940812
0.0060687851
0.007325787
0.0087638352
0.010446866
0.012458285
0.014836466
0.017656267
0.020762557
0.023960153
0.026648838
0.02764815
0.0035344404
0.0039329501
0.0045391141
0.0050127143
0.0051261781
0.0051239336
0.005179089
0.0052364007
0.0035728709
0.0037529666
0.0035903536
0.0030302119
0.0023592848
0.0018868616
0.0016715335
0.0015686696
0.0014798672
0.0013929393
0.0013606912
0.0014543873
0.0017081351
0.0020802381
0.0024689498
0.0029140151
0.0011134845
0.00050499129
0.00053959405
0.00064263518
0.00079581377
0.0010193128
0.0013419436
0.0017963341
0.0024084185
0.0031789734
0.0040798304
0.0050712057
0.0061432404
0.0073299406
0.0086928489
0.010299261
0.012228133
0.014512052
0.017215131
0.020178122
0.023211791
0.025734898
0.026716605
0.0034399933
0.0034602075
0.0039264361
0.0045941603
0.0051095198
0.0052079977
0.0051476975
0.0051424873
0.0051708693
0.0036384632
0.0035336629
0.0030393529
0.0024038229
0.0019294933
0.0017110265
0.0016149211
0.0015231019
0.0014173334
0.0013557041
0.0013981396
0.0016002716
0.0019531726
0.0023407426
0.0027094351
0.0021085895
0.0005866232
0.00046844955
0.0005345584
0.00064424811
0.00080867358
0.0010521581
0.0014061026
0.0019030619
0.0025610049
0.003362936
0.004261943
0.0052135892
0.0062223241
0.0073385771
0.0086322027
0.010169948
0.01202519
0.014224079
0.016820423
0.019650173
0.022538418
0.024929897
0.025898241
0.0035050443
0.0033089634
0.0033851928
0.0039060005
0.0046263214
0.0051795107
0.0052752688
0.0051698293
0.0051112088
0.0051059759
0.0034571389
0.0030323455
0.0024431842
0.0019770491
0.0017582308
0.0016674967
0.0015772961
0.001455234
0.0013612385
0.0013679152
0.001514371
0.0018337255
0.0022261812
0.0025635166
0.0028134405
0.00086189146
0.00045302675
0.00045517739
0.00053002325
0.00064836532
0.00082872026
0.0010989853
0.001493334
0.0020429701
0.0027526149
0.0035816617
0.0044642301
0.005361288
0.006300017
0.0073474308
0.0085774894
0.010054245
0.011844289
0.013965758
0.016461936
0.019171178
0.02194451
0.02423218
0.025171965
0.0033640029
0.0033626915
0.0031841093
0.0033077626
0.0038702986
0.0046332904
0.0052223093
0.0053263412
0.0051883025
0.005083155
0.0050410533
0.0030100482
0.0024757984
0.002028633
0.0018136333
0.0017287178
0.0016390983
0.0015052129
0.0013789136
0.0013457637
0.0014575012
0.0017281175
0.0021148819
0.0024498334
0.0026349075
0.0013989317
0.00055529552
0.00040957196
0.00044523324
0.00052711757
0.00065764902
0.00085964764
0.0011647668
0.0016104909
0.0022245897
0.0029898769
0.0038354735
0.0046798478
0.005506297
0.0063706503
0.0073527813
0.0085261031
0.0099489623
0.011679763
0.013728039
0.01613474
0.018752942
0.021440136
0.023611879
0.02450926
0.0029745114
0.0032600401
0.0032196623
0.0030659265
0.0032278695
0.0038193977
0.0046150492
0.0052387157
0.0053585525
0.0052005763
0.0050557855
0.0049776451
0.0025008863
0.0020836001
0.0018778155
0.0017995069
0.0017093257
0.0015649917
0.0014102792
0.0013339798
0.0013988194
0.0016452712
0.0020108617
0.0023475904
0.0025100049
0.0023385427
0.00080187475
0.00045240221
0.0003880194
0.0004365746
0.00052794938
0.0006752834
0.00090549189
0.0012553308
0.0017664728
0.0024587875
0.0032812685
0.0041213364
0.0048991664
0.0056402839
0.0064295278
0.0073517653
0.0084759279
0.0098507131
0.01152569
0.013509229
0.015854143
0.018412241
0.020986383
0.022983986
0.023885639
0.0025188348
0.0029299497
0.0031492259
0.0030823114
0.0029556612
0.0031462426
0.0037547327
0.0045725253
0.0052272792
0.0053700983
0.0052031612
0.0050252873
0.0049106692
0.0021414568
0.0019508303
0.0018804564
0.0017884642
0.0016325694
0.0014528832
0.001336907
0.0013526717
0.0015456617
0.0019167727
0.0022522675
0.002402437
0.0022904237
0.0012359047
0.00062854947
0.00040410145
0.0003725477
0.00043090498
0.00053518506
0.00070451188
0.00097069305
0.0013780728
0.0019738147
0.0027586312
0.0036308424
0.0044294812
0.0051101824
0.0057559309
0.0064731325
0.0073425253
0.0084237717
0.0097546513
0.011381882
0.01332616
0.015638116
0.018098258
0.020464434
0.022403891
0.023311277
0.0022016266
0.0025319924
0.0028774033
0.0030372817
0.0029548207
0.002854178
0.0030642537
0.003678758
0.0045077312
0.0051878492
0.0053581618
0.0051895466
0.0049875309
0.0048367728
0.0020327334
0.0019713018
0.0018766541
0.0017072384
0.0015027644
0.0013532896
0.0013229001
0.0014586936
0.0017935423
0.0021650358
0.0022992558
0.0021425734
0.0019229272
0.00097192676
0.00056432827
0.00037378849
0.00036055201
0.00043044731
0.00055162811
0.0007484817
0.0010604465
0.0015433483
0.0022500487
0.003145653
0.0040400138
0.0047449553
0.0052997029
0.0058472378
0.0064993964
0.0073243217
0.0083675223
0.0096623273
0.011265624
0.013193871
0.015431826
0.017655339
0.020026844
0.021938995
0.022797756
0.002122073
0.0022640442
0.0025402493
0.0028203984
0.0029296546
0.0028396948
0.0027620722
0.0029838903
0.0035950697
0.0044241947
0.0051207139
0.0053186259
0.005159954
0.0049394123
0.004755303
0.002070647
0.0019727606
0.0017879296
0.0015583637
0.0013770387
0.0013104056
0.0013900955
0.0016719335
0.0020589919
0.0022102228
0.0020167057
0.0017025128
0.001568982
0.00092562754
0.00053723039
0.0003504911
0.0003532197
0.00043730012
0.00057936595
0.00081038914
0.0011816256
0.0017675639
0.0026252075
0.0036487861
0.0045040515
0.0050466902
0.005454769
0.0059099222
0.0065072483
0.0072958561
0.0083103828
0.0095910683
0.01118622
0.013060805
0.015070367
0.017334416
0.019707707
0.021514999
0.022288749
0.0021750037
0.0022165522
0.0023251836
0.0025443235
0.0027623468
0.0028303817
0.0027380283
0.002680076
0.0029073023
0.0035076884
0.0043280232
0.005030379
0.0052620093
0.0051153335
0.0048788794
0.0046667355
0.0020739833
0.0018729521
0.0016179323
0.0014058235
0.0013069605
0.0013447285
0.0015629814
0.0019380864
0.00216183
0.0019152174
0.0015226692
0.0013038157
0.0012706763
0.00096176617
0.00052612147
0.00033160733
0.00035236854
0.00045310915
0.00062016056
0.00089392319
0.0013442035
0.0020765814
0.0031515045
0.0042968597
0.0049968169
0.0053067718
0.0055646245
0.0059417371
0.006497442
0.0072606523
0.0082648947
0.0095428985
0.01110224
0.012767637
0.014844239
0.017165323
0.019460162
0.021046256
0.021828173
0.0021756184
0.0022784713
0.0023086766
0.0023811848
0.0025453559
0.0027063591
0.0027417255
0.0026499073
0.0026081031
0.002835961
0.0034208118
0.0042297396
0.0049513459
0.0051916211
0.005054241
0.0048045388
0.004573584
0.0019603529
0.001680091
0.0014370014
0.0013096444
0.0013143042
0.0014737448
0.0018156697
0.0020861777
0.0019354177
0.0013956438
0.0010995178
0.00099801754
0.0010168245
0.0010481699
0.00052387384
0.00031808969
0.00035874347
0.00047870573
0.00067553715
0.0010035086
0.0015632313
0.0025168803
0.0039195691
0.0051129291
0.0054669461
0.0054966163
0.005623047
0.005943861
0.0064738244
0.0072289671
0.0082336769
0.0094897685
0.01086315
0.012604483
0.014794332
0.017066376
0.019102353
0.020647805
0.021385663
0.0020480852
0.0022724858
0.0023729049
0.0023898294
0.0024305451
0.0025444326
0.0026546539
0.002664092
0.0025746047
0.0025452475
0.0027703788
0.0033452886
0.0041636896
0.0048679103
0.0051073797
0.0049755917
0.0047174311
0.0044823344
0.0017430593
0.0014685991
0.0013150177
0.001294214
0.0014054338
0.0016972366
0.0019955199
0.0019254236
0.0014335714
0.00096094665
0.0008058049
0.00076512849
0.00080780977
0.00094110561
0.00052851727
0.00031189051
0.00037291782
0.00051436693
0.00074662886
0.0011452364
0.0018635595
0.0031822112
0.0051013871
0.0060694662
0.0058360371
0.0055960203
0.0056318314
0.0059215284
0.0064456173
0.0072042942
0.00819867
0.0092920573
0.010742685
0.012635065
0.014808495
0.016805295
0.018813672
0.020244923
0.021005881
0.0018048071
0.0021340825
0.0023622381
0.0024528101
0.0024566932
0.0024730489
0.002542272
0.0026083123
0.0025970413
0.0025097983
0.0024914809
0.0027188767
0.0032976013
0.0041024912
0.0047806032
0.0050106022
0.0048816084
0.0046231474
0.0044056003
0.0014990913
0.0013200595
0.0012806665
0.0013554628
0.0015899537
0.0018926384
0.001890787
0.0014574597
0.00096262933
0.00068920759
0.00060799246
0.00059073954
0.00064361347
0.00078254497
0.00054237383
0.0003127772
0.00039461745
0.00055968472
0.00083493963
0.0013277378
0.0022880987
0.0042818764
0.0070552236
0.0069953468
0.0060291645
0.0056053142
0.0055986305
0.0058854644
0.0064183069
0.0071751132
0.008027411
0.0091940378
0.010827098
0.012720276
0.014632107
0.01661732
0.018505033
0.019879728
0.020659254
0.0015270978
0.0018624207
0.0022172494
0.0024424932
0.0025162459
0.0025121062
0.0025086922
0.0025388857
0.0025671172
0.0025385813
0.0024570259
0.0024444818
0.002682777
0.0032597329
0.0040483246
0.0046946154
0.0049068355
0.0047789321
0.0045339922
0.0043609747
0.0013232523
0.0012683585
0.0013232347
0.0014977298
0.0017834613
0.0018362053
0.0014624766
0.00097286079
0.00067739623
0.00054820942
0.00049724984
0.00047909293
0.00052281112
0.00065758175
0.00055224776
0.00031753731
0.00042330286
0.0006144402
0.00094193879
0.0015610698
0.0029082073
0.0064325907
0.010411039
0.0075251934
0.0060227401
0.0055370902
0.005537285
0.0058435045
0.0063828437
0.0070179752
0.0079412477
0.0093073019
0.010951319
0.012610841
0.014532935
0.016398037
0.01822549
0.019525331
0.020335033
0.0013240719
0.0015512535
0.0019158513
0.0022927055
0.0025143828
0.0025723551
0.0025587924
0.0025363941
0.0025332968
0.0025310598
0.0024896077
0.0024047553
0.0024052039
0.0026572584
0.0032330362
0.0040071317
0.0046188666
0.0048063166
0.004680584
0.0044716499
0.0043657386
0.0012547553
0.0012974005
0.0014265642
0.00167389
0.0017650138
0.0014515196
0.00098047648
0.00068132505
0.00055868461
0.00051312239
0.00046925246
0.00043532976
0.00045321403
0.00057283247
0.00052162759
0.00032799157
0.00045794085
0.00067779579
0.001066823
0.001848218
0.0038180816
0.012325364
0.014006111
0.0074010195
0.0058433097
0.0054138765
0.0054602395
0.0057878347
0.0062253243
0.0069320651
0.0080665756
0.0094486832
0.010887958
0.012570388
0.014392354
0.016194358
0.017946602
0.019195928
0.020027659
0.0012386348
0.0013228132
0.0015719117
0.0019606626
0.0023577965
0.0025781881
0.0026208221
0.0025947957
0.0025549014
0.0025269109
0.0025001785
0.0024391203
0.0023573073
0.0023736315
0.0026432248
0.0032238326
0.0039874474
0.0045657517
0.0047244257
0.004610008
0.0044574612
0.0044357916
0.0012724929
0.0013732037
0.0015698188
0.0016813489
0.0014260122
0.00098358522
0.00068760638
0.00057927019
0.00057355897
0.00056776781
0.00051564123
0.00045509884
0.00043115225
0.00053239123
0.00044900605
0.00034660889
0.00049691834
0.00074699084
0.0012023911
0.002168427
0.0049717565
0.021353787
0.012138629
0.0067735224
0.0055551815
0.0052575016
0.0053619533
0.005613716
0.0061306199
0.0070545781
0.0082093201
0.0094138243
0.010885483
0.01248821
0.014255746
0.015985788
0.017685565
0.018878579
0.019739514
0.0012450512
0.001221027
0.00132144
0.0015859232
0.001994365
0.0024110464
0.0026333531
0.0026617005
0.0026207406
0.0025685915
0.0025206537
0.0024650669
0.0023891541
0.0023122856
0.0023531754
0.002647641
0.0032397626
0.0040006355
0.0045513748
0.0046835966
0.0045942901
0.0045090129
0.0045757904
0.0013278014
0.0014771436
0.0015890185
0.001386711
0.00098038141
0.00069214231
0.00059590941
0.00061909059
0.00069287625
0.00069095828
0.00061888275
0.00050306374
0.00042993693
0.00052529534
0.00036770878
0.00037121521
0.00053793909
0.00081694368
0.0013344813
0.0024584023
0.0059218723
0.015865734
0.0086329665
0.0059947197
0.0052207207
0.0050772168
0.0051516121
0.0054997313
0.0062393983
0.0071874781
0.0081883655
0.0094331486
0.010842254
0.012404437
0.014113812
0.015785742
0.017426802
0.018579417
0.019470008
0.0012849733
0.0012155224
0.0012056073
0.0013194812
0.0015927116
0.0020152983
0.0024512641
0.0026809144
0.0026975678
0.0026428859
0.0025780413
0.002503742
0.0024248281
0.002339781
0.0022746498
0.0023506005
0.0026786336
0.0032906981
0.0040608748
0.0045945302
0.0047060545
0.0046437603
0.0046314039
0.0048209821
0.0013962031
0.001492382
0.0013346952
0.00096903433
0.00069225283
0.00060362573
0.00064803863
0.00075690391
0.00087254007
0.00085167836
0.00071909325
0.00053400446
0.00042681838
0.0005455601
0.00031538737
0.00039762176
0.00057843368
0.00088211875
0.0014447071
0.0026202227
0.0054507212
0.0083624176
0.0064649532
0.0052788241
0.0048939166
0.0048081825
0.0050072035
0.0055841199
0.0063525005
0.0071685296
0.0082165965
0.0094138609
0.01079464
0.01231136
0.013970971
0.015580791
0.017182165
0.01829832
0.019217151
0.0013233397
0.0012414914
0.0011874052
0.0011931464
0.0013173384
0.0015928764
0.0020230989
0.0024775567
0.002721336
0.0027315996
0.0026606208
0.0025723585
0.0024738806
0.002384161
0.0022945387
0.0022523577
0.0023759517
0.0027457258
0.0033884434
0.0041858991
0.0047148515
0.004806528
0.004769875
0.0048626334
0.0053146036
0.0013961096
0.0012714529
0.00094861128
0.00068660608
0.00060161613
0.00065511972
0.00078941097
0.00094118758
0.0010513727
0.0009786418
0.00076745549
0.00052712742
0.00041835685
0.00058008673
0.00030553217
0.0004238468
0.00061611296
0.00093664702
0.0015108243
0.0026119163
0.0045659617
0.0056675915
0.0051473021
0.0047193041
0.004542117
0.0046189276
0.0050548323
0.0056685517
0.0063255007
0.0071958356
0.0082085848
0.0093887244
0.010735586
0.01221145
0.013819304
0.015382283
0.016952094
0.018033911
0.01897947
0.0013030131
0.0012556726
0.0011978479
0.0011618613
0.0011844719
0.0013157165
0.0015880448
0.0020182961
0.002489306
0.0027549914
0.0027645566
0.0026681251
0.0025498041
0.0024461793
0.0023463967
0.0022615022
0.0022566856
0.0024409189
0.0028576989
0.0035499496
0.0044021097
0.0049338831
0.0050052618
0.0050326246
0.0053508633
0.0063873922
0.0011995779
0.00091912433
0.00067504901
0.00059134234
0.00064440563
0.00078296771
0.00096105464
0.0011047685
0.0011680473
0.0010322752
0.00075171671
0.00048521341
0.00041636648
0.00036507368
0.00031953874
0.00044860925
0.000648173
0.00097261235
0.0015234063
0.0024711532
0.0036948659
0.0043141398
0.0043460068
0.0042733501
0.0042901561
0.004613216
0.0051023298
0.005624942
0.0063435717
0.0071893071
0.0081943513
0.0093513048
0.01066606
0.012101624
0.013667357
0.015196153
0.016733746
0.017781724
0.018757092
0.0011226441
0.0012160789
0.0011906962
0.0011550624
0.0011400387
0.0011800847
0.0013155431
0.0015800823
0.0020027397
0.0024870274
0.0027838635
0.0027960071
0.0026678606
0.0025388961
0.0024232817
0.0023184909
0.0022537847
0.0023034962
0.0025537204
0.0030270628
0.0038008749
0.0047561387
0.0052873577
0.0053756139
0.0055943958
0.0064252509
0.008580258
0.00088151374
0.00065822939
0.00057509929
0.00062186857
0.00075185755
0.00092332061
0.0010850914
0.0011903999
0.001207265
0.0010125914
0.00067913591
0.00042546253
0.00043931867
0.00027646955
0.00033720806
0.00046999432
0.00067096424
0.00098630163
0.0014944264
0.0022486885
0.0030297178
0.0035653004
0.0038621169
0.0039510661
0.0042132431
0.0046180214
0.005034907
0.0056272098
0.0063303301
0.0071770377
0.0081678395
0.0093021879
0.010584928
0.0119883
0.013527721
0.015016763
0.016520766
0.017544926
0.018548196
0.00083775023
0.0010472517
0.0011338191
0.0011284371
0.0011144676
0.0011228103
0.0011801241
0.001318106
0.0015713693
0.001978462
0.0024716139
0.002804925
0.002838264
0.0026876986
0.0025372734
0.0024112161
0.0023128618
0.0022891407
0.002408381
0.0027216023
0.0032660665
0.0042018692
0.0053213615
0.0058693463
0.0061181756
0.006804491
0.0086329141
0.010630345
0.00063684417
0.00055534807
0.00059257257
0.00070850112
0.00086054323
0.0010035919
0.0011158117
0.0012104855
0.0011916287
0.00092775482
0.00056781651
0.00037381275
0.00043279698
0.00026321503
0.00035314096
0.00048623181
0.00068340154
0.00098380172
0.0014340383
0.0019971597
0.0025973716
0.0032009071
0.0035112687
0.0037989424
0.0041783298
0.0045218458
0.0050165197
0.0056009638
0.0063127021
0.0071531895
0.0081293867
0.0092407018
0.01049985
0.011880448
0.013390048
0.014837086
0.016320097
0.017319535
0.018354567
0.00061234624
0.0007929475
0.00097258768
0.0010568672
0.0010698248
0.0010777659
0.001110498
0.0011847876
0.0013249936
0.0015635697
0.001948014
0.0024465452
0.0028708586
0.0028979415
0.0027218309
0.0025504331
0.0024207829
0.002345624
0.0023814669