/*--------------------------------*- C++ -*----------------------------------*\
  =========                 |
  \\      /  F ield         | OpenFOAM: The Open Source CFD Toolbox
   \\    /   O peration     | Website:  https://openfoam.org
    \\  /    A nd           | Version:  8
     \\/     M anipulation  |
\*---------------------------------------------------------------------------*/
FoamFile
{
    version     2.0;
    format      ascii;
    class       volScalarField;
    location    "200.966377299857271";
    object      omega;
}
// * * * * * * * * * * * * * * * * * * * * * * * * * * * * * * * * * * * * * //

dimensions      [0 0 -1 0 0 0 0];

internalField   nonuniform List<scalar> 
9200
(
0.0045073281
0.0045178764
0.004507777
0.0045321684
0.0045178532
0.004506826
0.0045538012
0.004531468
0.004516628
0.0045064484
0.0045849804
0.0045523497
0.0045299872
0.0045160684
0.0045058215
0.0046306211
0.0045825412
0.0045505191
0.0045292773
0.0045152258
0.0045052089
0.0046988042
0.0046266129
0.0045802879
0.0045496592
0.004528262
0.0045143731
0.0045045226
0.0048044668
0.0046920686
0.004623836
0.0045793588
0.0045484393
0.0045271699
0.0045134143
0.0045038912
0.0049793364
0.0047927039
0.0046882779
0.0046228307
0.0045780303
0.0045469915
0.0045259008
0.0045125124
0.0045033975
0.0052849802
0.0049561756
0.0047866148
0.0046871269
0.0046215314
0.0045762132
0.0045452044
0.0045246642
0.0045117826
0.0045031269
0.0058348241
0.0052389045
0.004944417
0.0047851321
0.0046860502
0.0046193735
0.0045737073
0.0045433915
0.0045236263
0.004511337
0.0045031297
0.0068995458
0.0057323935
0.0052154831
0.004942215
0.0047847384
0.0046835967
0.0046158919
0.0045709957
0.0045418225
0.0045229471
0.004511237
0.0045034113
0.0091802695
0.0066253287
0.0056889867
0.0052125695
0.0049435381
0.0047821826
0.0046787029
0.0046117797
0.0045685746
0.004540743
0.0045227125
0.0045114875
0.004503937
0.014078631
0.0084078967
0.0065249803
0.0056861595
0.0052168991
0.0049412038
0.0047751905
0.0046723148
0.0046079797
0.0045668636
0.0045402766
0.0045229283
0.0045120393
0.0045046465
0.023664264
0.012177551
0.0081134275
0.0065205551
0.0056955172
0.0052140708
0.0049309271
0.0047650242
0.0046661951
0.0046052866
0.0045660353
0.0045404358
0.0045235178
0.0045128092
0.004505467
0.040682297
0.01985341
0.011397543
0.0080953569
0.0065444912
0.0056908017
0.0051971196
0.004914417
0.00475478
0.0046618679
0.0046039322
0.0045661113
0.0045410987
0.0045243567
0.0045137004
0.0045063235
0.068323138
0.034138523
0.018547543
0.011405778
0.008165085
0.0065358141
0.0056601677
0.0051679295
0.0048964816
0.0047472387
0.0046597305
0.0046039007
0.0045668984
0.0045420664
0.0045253071
0.0045146193
0.004507149
0.10747696
0.059697512
0.03314829
0.019047416
0.011685501
0.0081538869
0.0064692828
0.0056065141
0.0051343404
0.0048818383
0.0047434529
0.0046595308
0.0046048689
0.0045680704
0.0045431255
0.0045262433
0.004515487
0.0045078926
0.15519629
0.099173802
0.061302431
0.035976947
0.020251693
0.011719356
0.0079880824
0.0063550468
0.0055429188
0.005104749
0.0048729322
0.0047426107
0.0046606897
0.0046063033
0.0045692837
0.0045440945
0.0045270682
0.0045162468
0.0045085233
0.2057031
0.1499485
0.10708515
0.07006953
0.040277363
0.020627877
0.011246186
0.0077011231
0.0062252812
0.0054834766
0.0050835531
0.004869057
0.0047435504
0.0046623337
0.0046076596
0.0045702631
0.0045448478
0.004527722
0.0045168673
0.0045090279
0.25328504
0.20484542
0.1669012
0.12597312
0.081010769
0.04187803
0.01928458
0.010391805
0.0073892445
0.0061085002
0.0054371754
0.0050709627
0.0048679637
0.0047448175
0.0046636239
0.0046085247
0.0045708397
0.0045453226
0.0045281813
0.0045173407
0.0045094111
0.29455665
0.25621983
0.23046173
0.19797233
0.1467094
0.085098778
0.038303932
0.01663432
0.0095072806
0.0071269886
0.0060177512
0.0054050427
0.005063682
0.0048673254
0.004745175
0.0046639625
0.0046086742
0.0045709543
0.0045455134
0.0045284546
0.0045176795
0.0045096915
0.32868035
0.29978854
0.28715216
0.27173024
0.22882434
0.15396346
0.077157472
0.030908745
0.013874211
0.0088337341
0.006938237
0.0059512752
0.0053826238
0.0050578348
0.0048653189
0.0047440056
0.0046631011
0.0046080743
0.0045706395
0.0045454599
0.004528574
0.0045179106
0.004509897
0.35606739
0.33484989
0.33213869
0.33357382
0.3097747
0.23875505
0.13954474
0.060269884
0.023328249
0.011920065
0.0084014185
0.0068044825
0.0058983224
0.0053635149
0.0050502668
0.0048609524
0.0047410444
0.0046610931
0.0046068406
0.0045699921
0.00454523
0.0045285861
0.0045180695
0.0045100598
0.37760178
0.3623437
0.36554357
0.37899627
0.37405324
0.3215302
0.2178706
0.10874665
0.042318418
0.017974806
0.010799609
0.0081257975
0.0067029899
0.0058514344
0.005342382
0.0050389253
0.0048539314
0.0047364648
0.0046581997
0.0046051755
0.0045691438
0.0045449047
0.0045285437
0.0045181947
0.0045102122
0.39423043
0.38362594
0.38956049
0.40937891
0.41836773
0.3879976
0.29708806
0.17275108
0.07480324
0.029271428
0.014934075
0.01019263
0.0079424528
0.0066178563
0.0058048765
0.0053165594
0.0050237275
0.0048447813
0.0047307672
0.0046547959
0.0046033127
0.004568233
0.0045445643
0.0045284984
0.004518323
0.0045103832
0.40683421
0.39999155
0.40648527
0.42882777
0.44636353
0.43395239
0.36484918
0.24215046
0.12051446
0.049010845
0.021941076
0.013418653
0.0098651998
0.0078071498
0.0065397674
0.0057543079
0.0052861766
0.0050061251
0.0048345323
0.0047245994
0.0046512747
0.0046014783
0.0045673844
0.0045442794
0.0045284948
0.0045184861
0.0045105966
0.41616744
0.4125531
0.41825203
0.44050147
0.46323201
0.46379637
0.41641696
0.30735523
0.17455417
0.078540391
0.033719061
0.018460472
0.012741468
0.0096703216
0.0076952273
0.0064582703
0.0056991212
0.0052537281
0.0049881469
0.0048242967
0.0047186102
0.0046479884
0.0045998617
0.0045666971
0.004544105
0.0045285669
0.0045187087
0.0045108695
0.42285325
0.42216286
0.426394
0.44687733
0.47205836
0.48248359
0.4537188
0.36374072
0.2311228
0.11687122
0.052472031
0.026840776
0.017234876
0.012462006
0.0095251823
0.0075837098
0.0063689734
0.0056426542
0.0052225959
0.0049716424
0.0048150578
0.0047133679
0.0046452275
0.0045986015
0.0045662404
0.0045440778
0.0045287374
0.0045190079
0.0045112116
0.42742045
0.42947576
0.43204307
0.44985264
0.47550662
0.49319082
0.48045858
0.41087002
0.28642436
0.1622889
0.080571814
0.041328147
0.025250309
0.017207331
0.012368844
0.0093694068
0.0074570937
0.0062755118
0.005590076
0.0051957769
0.0049579956
0.0048076084
0.004709323
0.0046432119
0.0045977859
0.0045660531
0.0045442159
0.0045290189
0.0045193919
0.004511625
0.43049791
0.43502623
0.4359827
0.45080128
0.47558852
0.49812871
0.49878896
0.44948049
0.3384691
0.21267342
0.12012284
0.067353904
0.041385551
0.026931762
0.017862277
0.012317926
0.0091643359
0.0073154697
0.0061867382
0.0055462729
0.0051753462
0.0049480773
0.0048025232
0.0047067669
0.0046420651
0.0045974487
0.0045661456
0.0045445236
0.0045294097
0.0045198591
0.0045121057
0.43205932
0.43947137
0.43880218
0.45063806
0.47384393
0.49913609
0.51021568
0.48002877
0.38578694
0.26488203
0.1703079
0.11156241
0.075308722
0.04940839
0.030861414
0.018806214
0.01213045
0.0089044426
0.0071698602
0.0061118813
0.0055145611
0.0051622137
0.00494231
0.0048000248
0.0047057605
0.0046418038
0.0045975845
0.0045665054
0.0045449874
0.0045298981
0.0045204019
0.0045126439
0.43208991
0.44268776
0.44079868
0.45005347
0.47127881
0.49772372
0.51635474
0.50315776
0.42730658
0.31566133
0.22598298
0.17319745
0.13738139
0.10074239
0.063763744
0.035972595
0.019284691
0.01170324
0.0086166319
0.0070334252
0.0060572681
0.0054959925
0.005156254
0.0049405595
0.0047999247
0.0047062088
0.0046423636
0.0045981722
0.0045670976
0.0045455788
0.0045304704
0.0045210076
0.0045132263
0.43081648
0.44460057
0.44227829
0.44924186
0.46853732
0.49499167
0.51871165
0.51989953
0.46258102
0.36260831
0.28142841
0.24153555
0.22247461
0.19218439
0.139542
0.081516426
0.039437755
0.018675036
0.011079441
0.008343191
0.0069202468
0.0060246666
0.005489462
0.0051563723
0.0049422455
0.0048018345
0.0047078621
0.0046436136
0.0045991376
0.00456788
0.0045462677
0.0045311067
0.0045216596
0.0045138366
0.42848052
0.4452298
0.44317332
0.44814832
0.46614276
0.49175809
0.51860287
0.53144351
0.49171911
0.40443274
0.33266819
0.30721677
0.31245727
0.3091867
0.26475376
0.18206339
0.093379148
0.038733899
0.017002888
0.010414779
0.0081098446
0.0068396596
0.0060115666
0.005491928
0.0051611788
0.0049466842
0.0048053099
0.0047103939
0.0046453816
0.0046003829
0.0045688036
0.004547024
0.0045317831
0.0045223393
0.0045144577
0.42533026
0.44465406
0.44353574
0.44720758
0.46318093
0.48855033
0.51704679
0.53907326
0.51524395
0.44075295
0.37779775
0.36483027
0.3923641
0.42436077
0.41493742
0.33629875
0.20751342
0.091793159
0.033877518
0.014916661
0.0098554944
0.007919233
0.0067897085
0.0060114406
0.0055004413
0.0051694976
0.0049531639
0.0048099007
0.0047135077
0.0046474692
0.0046017966
0.0045698069
0.004547819
0.0045324764
0.0045230271
0.0045150725
0.42161125
0.44299213
0.44341735
0.44662058
0.46108138
0.48438505
0.51421583
0.54392292
0.53403629
0.47171378
0.41640288
0.41260739
0.45628092
0.5163087
0.54987425
0.50830236
0.37472653
0.2024942
0.077408812
0.027182926
0.013107477
0.0094583281
0.0077839303
0.0067600085
0.006018469
0.0055129172
0.005180125
0.0049608852
0.0048151115
0.0047169034
0.0046496744
0.0046032707
0.0045708281
0.0045486181
0.004533164
0.004523704
0.0045156649
0.41757578
0.4404094
0.44287343
0.44652017
0.45998339
0.4810681
0.50961751
0.54520394
0.54950277
0.49778847
0.4487946
0.4509763
0.50397426
0.58067798
0.64319394
0.64853155
0.55194446
0.3636063
0.16982163
0.057726876
0.0210798
0.011879874
0.0091794162
0.0076897301
0.0067409293
0.0060289722
0.0055272949
0.0051917
0.0049689984
0.0048204363
0.0047202932
0.0046518298
0.0046046983
0.0045718178
0.0045493873
0.0045338255
0.0045243529
0.0045162207
0.41351624
0.43711538
0.44197918
0.4469835
0.46010819
0.4787913
0.50518105
0.54307288
0.56134507
0.51989827
0.4757091
0.48124739
0.53824644
0.62103064
0.69724725
0.73214022
0.68891233
0.53487419
0.30912256
0.1243421
0.040483666
0.016888453
0.011174077
0.0089608329
0.0076192791
0.0067259598
0.0060395667
0.0055413911
0.0052028821
0.0049767234
0.004825435
0.0047234328
0.0046538107
0.0046059992
0.0045727336
0.0045501005
0.0045344425
0.0045249584
0.0045167282
0.40976998
0.43336037
0.44084522
0.44806446
0.46155693
0.4778216
0.50130956
0.53967309
0.56790152
0.54061276
0.49781124
0.50472355
0.56233802
0.64486417
0.7220147
0.76867217
0.76627323
0.67083388
0.46635013
0.23175839
0.081975427
0.028562982
0.014570572
0.01076029
0.0087950515
0.0075608921
0.00671025
0.0060469633
0.0055532271
0.0052125395
0.0049834287
0.0048297603
0.0047261328
0.0046555229
0.0046071187
0.0045735326
0.004550738
0.004534999
0.0045255084
0.0045171781
0.42943363
0.40660022
0.4396213
0.44980369
0.46434984
0.4782679
0.49826063
0.53551673
0.57111408
0.55764374
0.51631752
0.52292562
0.5785563
0.65776566
0.73063362
0.77761423
0.79611955
0.75416556
0.60421019
0.36495429
0.15528881
0.052304161
0.021608404
0.013369153
0.010433212
0.0086610343
0.0075063156
0.0066900641
0.0060485616
0.0055612765
0.0052198227
0.0049886499
0.0048331612
0.0047282661
0.0046568853
0.0046080192
0.0045741903
0.0045512812
0.0045354824
0.0045259938
0.0045175641
0.43852902
0.42566326
0.40416758
0.45224834
0.46843489
0.48011498
0.49623212
0.53096955
0.57170542
0.57074024
0.53353114
0.53385709
0.58990332
0.66334557
0.73004793
0.77311419
0.79919828
0.79364259
0.70355373
0.49770992
0.25577291
0.096498204
0.0357331
0.017944297
0.012719309
0.010165936
0.0085434595
0.0074498061
0.0066629323
0.0060427458
0.0055645421
0.0052241754
0.0049920917
0.004835489
0.004729775
0.0046578504
0.0046086747
0.0045746928
0.0045517167
0.0045358852
0.0045264082
0.0045178836
0.45547754
0.43784536
0.42240829
0.40255932
0.47368717
0.48322421
0.49526583
0.52645651
0.57004848
0.58006972
0.54877167
0.54385175
0.59307006
0.6658179
0.72500582
0.76273207
0.79004856
0.80533572
0.76467646
0.61006939
0.36935229
0.16350394
0.060333688
0.026648201
0.016118041
0.012276965
0.009943942
0.0084316348
0.0073878768
0.0066275958
0.0060289116
0.0055625503
0.0052253321
0.0049936258
0.0048366838
0.004730614
0.0046583987
0.0046090728
0.0045750296
0.0045520388
0.0045362027
0.0045267466
0.0045181348
0.47991266
0.45968905
0.43792883
0.41985399
0.40181642
0.4873526
0.49527334
0.52221453
0.56680364
0.585841
0.56133514
0.55256585
0.59461667
0.66274444
0.71845263
0.75019951
0.77601604
0.80210713
0.7961245
0.69445403
0.48007475
0.24785974
0.10019125
0.041476494
0.021876535
0.015181359
0.011888032
0.0097464449
0.0083188021
0.0073188232
0.0065838394
0.0060073484
0.0055553024
0.0052232895
0.0049932614
0.0048367781
0.0047307636
0.0046585294
0.0046092125
0.0045751983
0.0045522439
0.0045364318
0.0045270081
0.0045183182
0.49214868
0.48681033
0.46517611
0.43845073
0.41817865
0.40191075
0.49606965
0.51841495
0.5623408
0.58842223
0.57087072
0.55979857
0.59470972
0.65626219
0.71033872
0.73691811
0.76057167
0.79174782
0.80820319
0.75192398
0.5768745
0.34034223
0.15536777
0.06396893
0.0316087
0.019535377
0.014614952
0.011557688
0.0095590063
0.0082011191
0.0072422261
0.0065323009
0.0059790068
0.0055431875
0.0052182515
0.004991107
0.0048358147
0.0047302465
0.0046582555
0.0046091
0.0045752025
0.0045523334
0.0045365734
0.0045271938
0.0045184364
0.49755313
0.49718411
0.49384422
0.46990668
0.43956915
0.41750011
0.40275025
0.51475331
0.55789788
0.58797653
0.57733216
0.56541563
0.59381663
0.64881494
0.69782062
0.72501568
0.74579224
0.77865039
0.80906862
0.78795944
0.65501507
0.43171584
0.22138603
0.096342947
0.046177408
0.026496513
0.01837366
0.014126138
0.011261075
0.0093724437
0.0080768482
0.0071585133
0.0064742395
0.0059452203
0.0055268648
0.0052105587
0.0049873738
0.0048338356
0.0047291081
0.0046576017
0.0046087479
0.0045750488
0.0045523115
0.00453663
0.0045273062
0.0045184935
0.51183265
0.49952117
0.50195908
0.50031647
0.47458242
0.44133536
0.41785351
0.4042017
0.55058071
0.58559547
0.58076303
0.56934175
0.59229043
0.6411472
0.68693945
0.71086489
0.73281799
0.76507185
0.80411612
0.80900268
0.71513368
0.515023
0.29317665
0.13884172
0.066022685
0.037288101
0.024023751
0.017713123
0.013684081
0.01097849
0.0091815895
0.0079458261
0.0070684236
0.006411298
0.0059074513
0.0055071387
0.0052006252
0.0049822308
0.0048309366
0.0047274065
0.0046565999
0.0046081739
0.004574747
0.004552184
0.004536606
0.0045273497
0.0045184942
0.54328601
0.5100192
0.5015691
0.50600372
0.50567833
0.47899953
0.44376063
0.41918335
0.40610888
0.58050157
0.58139359
0.57163105
0.59030641
0.63388371
0.67680892
0.69943426
0.71710376
0.75121708
0.79661754
0.82061263
0.76021341
0.58728784
0.36558655
0.18862998
0.091842416
0.052381142
0.03290068
0.022842474
0.017212413
0.013279252
0.010697146
0.0089843845
0.0078090166
0.0069721593
0.0063452895
0.0058671004
0.0054848496
0.0051889387
0.0049758298
0.0048272342
0.0047252061
0.0046552858
0.0046073986
0.0045743096
0.0045519591
0.004536507
0.0045273294
0.0045184439
0.5735463
0.53709615
0.50921243
0.5033872
0.50889555
0.50962286
0.48308626
0.44673954
0.42133652
0.40828433
0.57971295
0.57244671
0.58807256
0.62737956
0.66846379
0.68981412
0.70367939
0.7335714
0.78509746
0.82790475
0.79424145
0.64820877
0.43482796
0.2425632
0.12415388
0.071628687
0.046411352
0.031013621
0.022215215
0.016738758
0.012886562
0.010410424
0.0087811608
0.0076679916
0.0068714587
0.0062780038
0.0058253929
0.0054608303
0.0051758086
0.0049683764
0.0048228503
0.0047225747
0.0046536978
0.0046064441
0.0045737499
0.0045516454
0.0045363394
0.0045272512
0.0045183486
0.57626029
0.56589034
0.53241352
0.50915304
0.50470353
0.51029483
0.51196175
0.48659859
0.45003761
0.4240704
0.41050991
0.57212128
0.58587372
0.62198578
0.66223003
0.68313612
0.69253599
0.7170871
0.76743858
0.82644645
0.82519914
0.70014327
0.49843631
0.29840021
0.16208085
0.094746607
0.064702732
0.044372131
0.030409084
0.021796948
0.016267264
0.012490048
0.010116635
0.0085738831
0.0075242105
0.0067694149
0.0062110366
0.005783331
0.0054357699
0.0051615549
0.0049600822
0.0048179036
0.0047195795
0.0046518743
0.0046053331
0.0045730817
0.004551252
0.0045361108
0.0045271224
0.0045182142
0.57107532
0.57175154
0.55862937
0.52916554
0.50964856
0.50531364
0.51000345
0.51255678
0.48916626
0.45334467
0.4270735
0.41235596
0.58403388
0.61806371
0.658336
0.67967561
0.68452635
0.70258704
0.74902621
0.8156221
0.84863228
0.74986915
0.55702328
0.35400359
0.2043226
0.1222825
0.08679819
0.06415464
0.044611769
0.03040176
0.021439029
0.015782799
0.012082812
0.0098176967
0.0083652447
0.0073779673
0.006668854
0.0061456905
0.0057416861
0.0054101266
0.0051465071
0.0049511433
0.0048125058
0.0047162847
0.0046498525
0.0046040874
0.0045723189
0.0045507901
0.0045358303
0.0045269495
0.004518044
0.58292972
0.56978018
0.56693766
0.55251956
0.52735503
0.51054773
0.5050842
0.50785932
0.51105482
0.49043181
0.45623482
0.42958441
0.41379585
0.61598422
0.65692092
0.67940587
0.67993825
0.69044269
0.73122504
0.8004596
0.85751375
0.8077584
0.6134002
0.40876497
0.24959044
0.15543817
0.11312524
0.089268387
0.067205384
0.046123744
0.030630115
0.021068725
0.015271891
0.011665577
0.0095176998
0.0081576241
0.0072318543
0.0065720826
0.0060828541
0.0057008779
0.0053843232
0.0051309553
0.0049417325
0.0048067594
0.0047127497
0.0046476664
0.0046027281
0.0045714775
0.0045502721
0.0045355053
0.0045267289
0.0045177527
0.61605221
0.58289607
0.56873416
0.56260133
0.54805715
0.52696445
0.51173024
0.5039242
0.50375572
0.50717754
0.48992961
0.45775874
0.4316511
0.41448928
0.65810478
0.68196196
0.67861263
0.68103247
0.71450477
0.78356346
0.85633642
0.85134776
0.69049345
0.46346438
0.29734647
0.19533197
0.1454416
0.12068219
0.097767873
0.072463061
0.048236396
0.03088279
0.020645475
0.014732896
0.011244544
0.0092215291
0.0079519704
0.00709098
0.0064804347
0.0060230182
0.005661224
0.0053586999
0.005115135
0.0049319974
0.0048007535
0.0047090268
0.0046453483
0.0046012793
0.0045705761
0.0045497072
0.0045351226
0.0045263097
0.0045174229
0.66179438
0.61842187
0.58433535
0.5683983
0.55949953
0.54555781
0.52795176
0.51310954
0.50180313
0.49767901
0.50067148
0.48688363
0.4578325
0.43282033
0.41386945
0.68674965
0.67982679
0.67416264
0.69985327
0.76559683
0.84940067
0.87937589
0.76248642
0.54017828
0.34698703
0.24205142
0.18862702
0.16190347
0.13870568
0.11061537
0.078944413
0.050473308
0.031028729
0.020156172
0.014177923
0.010828724
0.0089309587
0.0077489992
0.0069584593
0.0063947677
0.0059664658
0.00562297
0.0053335041
0.0050992311
0.0049220622
0.0047945645
0.0047051637
0.004642934
0.0045997672
0.0045696255
0.0045490635
0.0045343044
0.0045258575
0.004517065
0.69275147
0.66770019
0.62283762
0.5872948
0.56920352
0.55821166
0.54517821
0.5302618
0.51458809
0.4987064
0.48980247
0.49141674
0.48117516
0.45612506
0.43237685
0.4111697
0.68233747
0.66916429
0.68759909
0.74860116
0.83735834
0.89615569
0.82300101
0.6201059
0.41022575
0.29270235
0.24372216
0.22115363
0.19778897
0.16567652
0.1269562
0.08585032
0.052502276
0.031016492
0.019617052
0.013609076
0.010413936
0.0086437352
0.0075570724
0.006836394
0.0063155164
0.0059133331
0.0055862826
0.0053089032
0.0050833866
0.0049120285
0.0047882612
0.004701213
0.0046404598
0.0045982059
0.0045685663
0.0045476217
0.0045334648
0.0045253845
0.0045166817
0.68441639
0.69843807
0.67442937
0.6286306
0.59182337
0.57153509
0.5590753
0.54694713
0.533752
0.51596881
0.49463817
0.48040324
0.48013321
0.4726469
0.45180999
0.42935152
0.40537775
0.665141
0.67775863
0.73377792
0.82348983
0.90231826
0.87157039
0.69670477
0.48118369
0.34161484
0.30639367
0.2994995
0.28780851
0.25358322
0.20166043
0.1461455
0.092801681
0.054175718
0.03083275
0.018960379
0.013007343
0.0099998148
0.0083642761
0.0073820202
0.0067257321
0.0062427456
0.0058636116
0.0055512541
0.0052850027
0.0050677119
0.0049019854
0.0047819131
0.0046972225
0.0046379444
0.004596494
0.0045660712
0.0045461907
0.0045326322
0.0045248904
0.0045162767
0.66110909
0.68427324
0.70173009
0.68016538
0.63539599
0.59790896
0.575627
0.56213805
0.55073625
0.53810607
0.51689797
0.48988715
0.46924949
0.46567329
0.46047744
0.4437918
0.42254439
0.39525114
0.66994649
0.72191085
0.81016526
0.90145788
0.90779961
0.76592604
0.55562402
0.39803423
0.35008408
0.38812598
0.40586181
0.3902
0.331517
0.24706776
0.16754958
0.099697269
0.055183803
0.030164055
0.018121765
0.012376744
0.0095919739
0.0081088669
0.0072264305
0.0066265307
0.0061762329
0.0058171702
0.0055179105
0.0052618646
0.0050522976
0.0048920173
0.0047755816
0.0046932181
0.0046352249
0.0045923468
0.0045636489
0.0045448155
0.004531803
0.0045243797
0.0045158529
0.663615
0.65610964
0.68074901
0.70109776
0.6839614
0.64280457
0.60538874
0.58149002
0.56727222
0.55609515
0.54307627
0.51721867
0.48283704
0.45516534
0.44727148
0.44368085
0.43085941
0.4105823
0.37938217
0.71338577
0.7990212
0.8970867
0.93244794
0.82537777
0.62916848
0.46035382
0.39866423
0.43784148
0.53398047
0.56117053
0.52896058
0.43138722
0.30177035
0.19061395
0.10541065
0.05463116
0.028870061
0.017109192
0.011739621
0.0092064504
0.007885293
0.0070906419
0.006538196
0.0061155322
0.0057737907
0.0054862272
0.0052395274
0.0050372252
0.0048821964
0.0047693029
0.0046889456
0.0046284698
0.0045883941
0.004561371
0.0045434838
0.0045309824
0.0045238534
0.0045154151
0.70825933
0.65799652
0.6489483
0.67278858
0.69558171
0.68597075
0.65031899
0.61384077
0.58883569
0.5740015
0.56314377
0.5464898
0.5157474
0.47347637
0.43738522
0.42419058
0.42130143
0.41174509
0.39202868
0.35614781
0.79132261
0.89119057
0.94981
0.87351475
0.69790143
0.52597831
0.45186368
0.49004111
0.60481828
0.74299675
0.76586103
0.6996709
0.54661443
0.3635597
0.21047841
0.10696699
0.052287521
0.027047968
0.015991539
0.011128226
0.0088698126
0.0076949749
0.0069735736
0.0064596796
0.0060600662
0.0057332229
0.005456146
0.0052180214
0.0050225615
0.0048725647
0.0047626877
0.0046781701
0.0046221323
0.0045847391
0.0045592111
0.0045422007
0.0045301702
0.0045233152
0.0045149668
0.78781145
0.70631491
0.65203848
0.6385847
0.66010319
0.68640226
0.68579783
0.65690196
0.62247224
0.59730014
0.58221065
0.56846268
0.54972446
0.51305319
0.46064757
0.4150222
0.39569726
0.39249651
0.38532455
0.36563613
0.32363126
0.88596959
0.95904231
0.91247528
0.75857864
0.59151381
0.50808541
0.54354024
0.67172223
0.85123817
1.0137638
1.0185624
0.89716038
0.66945655
0.41618955
0.21841868
0.10313774
0.048475656
0.024922784
0.014893609
0.010578939
0.0085882423
0.0075360416
0.0068730806
0.0063897003
0.0060092351
0.0056952204
0.005427594
0.0051973647
0.0050083345
0.0048625434
0.0047458825
0.0046681973
0.0046163551
0.0045813305
0.0045571739
0.0045409624
0.0045293699
0.0045227672
0.004514511
0.882799
0.78880558
0.70643588
0.64537408
0.6244343
0.6422722
0.67236469
0.68172737
0.66114604
0.63074347
0.60637086
0.58844641
0.5747225
0.55278887
0.50751152
0.44315402
0.38703066
0.36113923
0.35672029
0.35106678
0.32992371
0.28032134
0.96233543
0.94251305
0.80927476
0.65366894
0.56525651
0.59642314
0.73242906
0.93756554
1.1740995
1.3395507
1.3084688
1.1047569
0.77066126
0.43838686
0.21122333
0.094761877
0.043857322
0.022739362
0.013905226
0.010122072
0.0083586743
0.0074050766
0.0067854757
0.0063270658
0.0059624554
0.0056595537
0.0054004887
0.0051775311
0.0049937113
0.0048372089
0.0047304828
0.004659219
0.0046110453
0.0045781665
0.004555249
0.0045397695
0.0045285828
0.0045222125
0.0045140505
0.9615845
0.88281868
0.79385642
0.70820777
0.63748448
0.60641554
0.61895472
0.65236909
0.67225425
0.66252307
0.63788157
0.61259757
0.59525542
0.58094248
0.55431491
0.4976293
0.41933645
0.35232282
0.32017323
0.31414515
0.30884983
0.28374536
0.22575057
0.96179902
0.85028999
0.70941941
0.62113557
0.6471105
0.78529433
1.0034446
1.2703825
1.5561616
1.6902407
1.5957985
1.2642733
0.81359819
0.42390372
0.1915264
0.083951744
0.039121151
0.020729342
0.013073078
0.0097540865
0.0081739964
0.0072951479
0.0067084671
0.0062706631
0.0059191582
0.0056259958
0.005374697
0.005157371
0.0049574433
0.0048140845
0.0047167511
0.0046510745
0.0046061847
0.0045752233
0.0045534323
0.0045386209
0.0045278115
0.0045216531
0.0045135839
0.97150828
0.9595573
0.88727474
0.80269267
0.71087674
0.62801664
0.58477552
0.59050636
0.62608258
0.6570028
0.65959769
0.64028356
0.61766121
0.60197484
0.58635522
0.55253279
0.48113245
0.38720931
0.31001138
0.27311872
0.26566473
0.2583534
0.22707131
0.16399764
0.88169354
0.75683866
0.67356629
0.69439734
0.82964427
1.0504907
1.3284602
1.6334505
1.9352519
1.9971702
1.7927648
1.3272809
0.78649447
0.37995397
0.16547744
0.072867004
0.034771982
0.0190356
0.012402409
0.0094628472
0.0080263918
0.0072003035
0.0066413504
0.0062193071
0.0058787824
0.0055942751
0.0053487114
0.005108783
0.004924245
0.0047935509
0.0047044305
0.0046437124
0.0046017259
0.0045724874
0.004551719
0.0045375169
0.0045270569
0.0045210866
0.0045131096
0.90331051
0.97424401
0.95913091
0.89622835
0.81436835
0.71373777
0.61688124
0.5600633
0.55763411
0.59374895
0.63427507
0.64873946
0.63829612
0.62165183
0.60759484
0.58945763
0.54484974
0.45492872
0.34470169
0.25996988
0.22152333
0.21305241
0.20118995
0.16430981
0.10498255
0.79553781
0.72073201
0.7374813
0.86582463
1.0817042
1.3561106
1.6634209
1.958681
2.1993672
2.1766314
1.8620538
1.2870551
0.70343464
0.32123622
0.13914658
0.062889218
0.03108355
0.017666839
0.01187385
0.0092346945
0.0079051168
0.0071194388
0.006581578
0.0061718502
0.005840832
0.0055625171
0.0052872682
0.0050640687
0.0048946658
0.0047752477
0.0046934169
0.0046370426
0.0045976376
0.004569945
0.0045501056
0.0045364556
0.0045263066
0.0045205174
0.0045126296
0.82592495
0.91695475
0.97280363
0.96157137
0.90921345
0.82777021
0.71621461
0.60405375
0.53306395
0.52153385
0.55589782
0.60278836
0.63255104
0.6339253
0.6232892
0.61071533
0.58760862
0.52744006
0.41501356
0.29055003
0.2040684
0.16880626
0.15942934
0.14259832
0.10505695
0.05925955
0.76156326
0.77606675
0.89493368
1.1006301
1.36318
1.655078
1.9429108
2.1576269
2.3016237
2.2327736
1.821358
1.1649901
0.59023704
0.26218026
0.11636651
0.054614747
0.028120903
0.016586582
0.011460492
0.009054659
0.0078037817
0.0070496902
0.006526934
0.0061274632
0.0058030297
0.0054863812
0.0052307542
0.0050239017
0.0048682755
0.0047590165
0.0046835523
0.0046310004
0.0045938898
0.0045675843
0.0045485857
0.0045354123
0.0045255582
0.0045199484
0.0045121458
0.79600068
0.84950548
0.92404603
0.97049444
0.96774401
0.92555021
0.84180246
0.71755967
0.58968047
0.50486053
0.48405361
0.51481144
0.57269779
0.61411696
0.6254974
0.62079576
0.60910515
0.57698982
0.49426277
0.35783999
0.22602419
0.14766063
0.11966512
0.10947909
0.090181942
0.059229112
0.031024747
0.81015012
0.91872298
1.1110222
1.3573951
1.628135
1.8873282
2.0782558
2.1955849
2.310002
2.2140507
1.6909242
0.99137712
0.47358563
0.21205228
0.098347485
0.048153655
0.025821694
0.015743171
0.011133137
0.0089077517
0.0077174992
0.0069865972
0.0064759629
0.0060833502
0.0057077358
0.0054169536
0.005179812
0.004987774
0.0048449074
0.0047446119
0.0046747173
0.0046255264
0.004590456
0.0045653913
0.0045471117
0.004534391
0.0045248135
0.0045193815
0.0045116601
0.84020999
0.82462095
0.86797659
0.928143
0.97017283
0.97829907
0.94436053
0.85541944
0.71712924
0.57388072
0.47657615
0.44684409
0.47865607
0.5408757
0.59055356
0.61099709
0.61188184
0.59919694
0.5515594
0.43846838
0.28253915
0.15839673
0.097893793
0.078635288
0.068263226
0.050991458
0.030929242
0.016473339
0.93880776
1.1167616
1.3443767
1.5933744
1.8256251
1.978782
2.0533091
2.1638799
2.3068004
2.1346851
1.4889288
0.8006342
0.37315151
0.1740439
0.084663466
0.043321738
0.024071139
0.015075329
0.010862539
0.0087810692
0.0076389102
0.006927239
0.0064250459
0.0059611941
0.0056219144
0.0053547828
0.005133695
0.0049555633
0.0048242518
0.0047318376
0.0046668033
0.0046205689
0.0045873085
0.0045632864
0.0045456878
0.0045333931
0.0045240741
0.0045188186
0.0045111739
0.95710829
0.86625122
0.84983316
0.88396905
0.93289626
0.97428727
0.99333038
0.96457414
0.86770362
0.71405286
0.55674996
0.44870299
0.40742092
0.43959001
0.50446368
0.56018057
0.58817316
0.59312742
0.57436996
0.50170088
0.35547713
0.19761343
0.098834176
0.060264223
0.048344145
0.03917015
0.027104991
0.016281039
0.0098544095
1.1193576
1.3282191
1.5570618
1.7674401
1.8918351
1.9194126
1.9771677
2.1576438
2.3094513
1.9822747
1.2422551
0.62560362
0.297794
0.14726549
0.074865508
0.039738933
0.022668843
0.0145122
0.010621376
0.0086601884
0.0075623607
0.0068666334
0.0062615003
0.0058531784
0.005545952
0.0052986997
0.0050922332
0.0049269544
0.0048060469
0.0047205118
0.0046597156
0.0046160774
0.0045843175
0.0045612811
0.0045443138
0.0045324194
0.0045233418
0.004518261
0.0045106884
1.1212807
0.97328986
0.89142208
0.87383562
0.89982504
0.94119222
0.9841481
1.01186
0.98526909
0.87714823
0.70717126
0.53800732
0.40592144
0.36358729
0.39681087
0.46247432
0.52147005
0.55398124
0.55879349
0.52398131
0.41726534
0.25318267
0.11987093
0.055873623
0.036061538
0.028625147
0.021759627
0.014743474
0.0097233597
0.0071369741
1.3126242
1.5232605
1.7164562
1.8212837
1.8156268
1.817265
1.9438519
2.2046961
2.2892158
1.7516275
0.98882777
0.48916072
0.2467359
0.12849038
0.067702743
0.036882654
0.021475892
0.014010528
0.010391824
0.0085382368
0.0074808046
0.0066310017
0.0061217484
0.0057590143
0.0054780511
0.0052483385
0.005055043
0.0049016904
0.0047900322
0.0047104751
0.004653364
0.0046118484
0.0045814994
0.0045593735
0.0045429888
0.0045314714
0.0045226173
0.0045177096
0.0045102047
1.300028
1.1238087
0.9912978
0.91731393
0.89867051
0.9178174
0.95465323
0.99962042
1.0332253
1.0038229
0.88217719
0.69444057
0.49229527
0.35589395
0.31618251
0.35041414
0.41464829
0.47270052
0.50450947
0.50079318
0.4393546
0.30481413
0.15393988
0.063654757
0.031377509
0.022077993
0.017052955
0.012665696
0.0091829574
0.0070885881
0.0059493101
1.4951402
1.6742557
1.7659371
1.7395312
1.7032502
1.7658822
1.9796756
2.293835
2.1994764
1.465686
0.77123494
0.39714631
0.21388424
0.1149212
0.062041131
0.034475349
0.020414414
0.013543291
0.010170169
0.0084074089
0.0071053278
0.0064420414
0.0060028748
0.0056756589
0.0054175872
0.0052030658
0.0050218738
0.0048794923
0.0047759695
0.0047015788
0.0046474304
0.0046079089
0.0045788487
0.0045575594
0.004541713
0.0045305486
0.0045219017
0.0045171659
0.0045097234
1.4731796