/*--------------------------------*- C++ -*----------------------------------*\
  =========                 |
  \\      /  F ield         | OpenFOAM: The Open Source CFD Toolbox
   \\    /   O peration     | Website:  https://openfoam.org
    \\  /    A nd           | Version:  8
     \\/     M anipulation  |
\*---------------------------------------------------------------------------*/
FoamFile
{
    version     2.0;
    format      ascii;
    class       volScalarField;
    location    "200.966377299857271";
    object      omega_0;
}
// * * * * * * * * * * * * * * * * * * * * * * * * * * * * * * * * * * * * * //

dimensions      [0 0 -1 0 0 0 0];

internalField   nonuniform List<scalar> 
9200
(
0.0045073424
0.0045178975
0.0045077804
0.0045322061
0.0045178583
0.00450683
0.0045538684
0.0045314783
0.0045166312
0.0045064637
0.0045851029
0.0045523694
0.0045299882
0.0045160845
0.0045058565
0.0046308479
0.0045825808
0.0045505113
0.004529292
0.0045152661
0.0045052649
0.0046991872
0.0046266742
0.0045802609
0.0045496635
0.0045283082
0.00451444
0.0045045941
0.004805102
0.0046921808
0.0046237774
0.0045793338
0.0045484871
0.0045272517
0.0045135008
0.0045039681
0.0049803992
0.004792877
0.0046881592
0.0046227456
0.0045780622
0.0045470924
0.0045260089
0.0045126053
0.0045034683
0.0052866832
0.0049565095
0.0047863781
0.0046869222
0.0046215111
0.0045763286
0.0045453452
0.0045247804
0.004511867
0.0045031818
0.0058386675
0.005239363
0.0049439428
0.0047846708
0.0046859075
0.004619481
0.0045738926
0.0045435444
0.0045237301
0.0045114006
0.0045031627
0.0069122358
0.0057333839
0.0052143115
0.0049411711
0.0047843022
0.0046836485
0.0046161276
0.0045712044
0.004541957
0.0045230219
0.0045112726
0.0045034212
0.0092226166
0.0066290977
0.0056862244
0.0052101943
0.0049424378
0.004782063
0.0046789885
0.0046120681
0.0045687561
0.0045408356
0.0045227491
0.0045114944
0.004503927
0.014195432
0.0084203828
0.0065190685
0.0056813086
0.0052144409
0.0049406589
0.0047755044
0.0046727168
0.0046082288
0.0045669828
0.0045403141
0.004522927
0.0045120226
0.0045046232
0.023919021
0.012210563
0.0081000846
0.0065097963
0.005690702
0.0052126269
0.0049311748
0.0047655939
0.0046665444
0.0046054383
0.0045660735
0.0045404201
0.0045234875
0.0045127781
0.0045054388
0.041144777
0.019898279
0.011358415
0.0080680702
0.0065338297
0.0056879247
0.0051971404
0.0049152284
0.0047553134
0.0046620522
0.0046039669
0.0045660714
0.004541045
0.0045243115
0.0045136663
0.0045062997
0.068977386
0.034124454
0.018416951
0.011322371
0.0081372428
0.0065295534
0.0056600274
0.0051691437
0.0048974079
0.0047475149
0.0046597454
0.0046038235
0.0045668059
0.0045419976
0.0045252631
0.0045145933
0.0045071379
0.1081653
0.059458525
0.032723665
0.018789422
0.011597217
0.0081376743
0.006469105
0.0056086387
0.0051360315
0.0048824903
0.0047434432
0.004659394
0.0046047224
0.0045679637
0.0045430661
0.0045262152
0.0045154786
0.0045079004
0.15579129
0.098495828
0.060281478
0.035265304
0.01997967
0.011667444
0.0079883601
0.0063595526
0.0055461009
0.0051062439
0.0048731388
0.0047424159
0.0046604728
0.0046061495
0.0045692017
0.0045440653
0.0045270677
0.0045162626
0.0045085535
0.20617518
0.14874313
0.10518495
0.068560829
0.039564295
0.020476605
0.011248447
0.0077132002
0.006231681
0.0054865318
0.0050845038
0.0048689694
0.0047432879
0.0046621343
0.0046075584
0.0045702364
0.0045448632
0.0045277554
0.0045169101
0.0045090808
0.25370175
0.20324131
0.16410943
0.12345201
0.079631387
0.041544849
0.019310795
0.010430036
0.0074048155
0.0061145096
0.0054394601
0.0050713831
0.0048678029
0.0047446485
0.0046635306
0.0046085199
0.0045708861
0.0045453887
0.0045282501
0.0045174098
0.0045094843
0.29500913
0.25449419
0.22710026
0.19461532
0.14465628
0.084657611
0.038482204
0.016771849
0.0095513024
0.007140207
0.0060223338
0.0054065252
0.0050638964
0.0048673088
0.0047452001
0.0046640394
0.0046087871
0.004571078
0.0045456284
0.0045285555
0.0045177711
0.0045097805
0.32922822
0.29819351
0.28370813
0.2680382
0.22647721
0.15369189
0.077847161
0.031378146
0.014017553
0.0088656565
0.0069472403
0.0059545954
0.0053836474
0.0050581452
0.0048655854
0.0047442825
0.004663362
0.0046083029
0.0045708324
0.0045456153
0.0045286999
0.0045180186
0.0045099956
0.35672458
0.33355279
0.32895119
0.33008552
0.3076132
0.23904259
0.14123251
0.06157362
0.023773125
0.012010192
0.0084203923
0.0068104628
0.0059008552
0.0053645508
0.0050509387
0.0048615623
0.0047415815
0.0046615195
0.0046071637
0.0045702369
0.0045454129
0.0045287273
0.0045181863
0.0045101614
0.37835156
0.36142179
0.36282584
0.37591431
0.37237218
0.32251651
0.22085882
0.1114929
0.043531398
0.018249976
0.010844871
0.0081354058
0.0067067809
0.0058534121
0.0053437732
0.0050400748
0.004854877
0.0047372176
0.0046587472
0.0046055602
0.0045694173
0.0045450996
0.0045286896
0.0045183123
0.0045103101
0.39503699
0.38309935
0.38738737
0.40683158
0.41721187
0.38940685
0.30119512
0.1772858
0.077363865
0.030017503
0.015066755
0.010208141
0.007945448
0.0066198859
0.0058067706
0.0053184238
0.0050252606
0.0048459559
0.0047316517
0.0046554053
0.0046037203
0.0045685103
0.0045447554
0.0045286383
0.0045184335
0.0045104712
0.40765564
0.39985313
0.40486481
0.4267817
0.44547188
0.43536687
0.36949076
0.24826411
0.12483959
0.050680542
0.022301863
0.013458149
0.0098622954
0.0078055193
0.0065404566
0.0057563827
0.0052883462
0.0050078021
0.0048357797
0.004725513
0.0046518831
0.0046018697
0.0045676419
0.0045444521
0.0045286192
0.0045185827
0.0045106696
0.41696318
0.41276986
0.41715308
0.43891631
0.46246373
0.46499125
0.42088174
0.31437035
0.1806075
0.08147297
0.034519162
0.018557541
0.01272625
0.0096566199
0.0076897755
0.0064583857
0.0057012468
0.005255816
0.0049896935
0.0048254536
0.0047194487
0.0046485354
0.0046002016
0.0045669144
0.0045442471
0.004528668
0.0045187856
0.0045109234
0.42358938
0.4226819
0.42576858
0.44570866
0.47136847
0.48331585
0.45749753
0.37083364
0.23841342
0.12109577
0.05386742
0.026991164
0.017161388
0.01241203
0.0095047724
0.0075770908
0.0063687472
0.0056443467
0.0052241724
0.0049728149
0.0048159725
0.0047140351
0.0046456579
0.0045988611
0.0045664015
0.0045441802
0.0045288094
0.0045190609
0.0045112438
0.42807046
0.43023802
0.43183261
0.44905168
0.47488299
0.49361898
0.48335083
0.41735636
0.29426438
0.1673773
0.082333145
0.041317033
0.024923522
0.017007613
0.012291488
0.0093491506
0.0074509306
0.006274658
0.0055907316
0.0051964755
0.0049586039
0.0048081495
0.0047097374
0.0046434797
0.0045979438
0.004566147
0.0045442729
0.0045290582
0.0045194185
0.0045116344
0.43103088
0.43597026
0.43612807
0.45031682
0.4750338
0.49819942
0.50080296
0.45500925
0.3462811
0.21806121
0.12153601
0.066453165
0.040179781
0.026192612
0.017544797
0.012230272
0.0091488714
0.0073098998
0.006184551
0.0055453532
0.0051749189
0.0049479894
0.0048025915
0.0047068724
0.0046421421
0.0045974927
0.0045661665
0.0045445323
0.0045294151
0.0045198587
0.0045120923
0.43245771
0.44057177
0.43923733
0.45041737
0.47336408
0.49892357
0.5114398
0.48444845
0.39318213
0.27019755
0.17085994
0.10865857
0.071749275
0.047034369
0.029702329
0.018423027
0.012057804
0.0088956644
0.0071638042
0.0061075258
0.0055117283
0.0051605628
0.0049414527
0.004799587
0.0047055356
0.0046416792
0.0045975077
0.0045664524
0.0045449487
0.0045298705
0.0045203752
0.0045126092
0.43235106
0.44389359
0.44147914
0.45005365
0.4708838
0.49730524
0.51690923
0.50642568
0.43403525
0.32075078
0.22560921
0.16784938
0.12995717
0.094554857
0.060150957
0.034582001
0.018952899
0.011663968
0.0086122227
0.0070255699
0.0060502036
0.0054912092
0.0051534128
0.0049389584
0.0047990002
0.0047056647
0.0046420431
0.0045979775
0.0045669747
0.0045454961
0.0045304118
0.0045209566
0.0045131726
0.43095088
0.44585654
0.44316273
0.4493986
0.46823006
0.49443714
0.51870991
0.52205628
0.46849064
0.36744677
0.28037612
0.2341873
0.21142299
0.18103047
0.13110127
0.077350041
0.038278269
0.018496643
0.011072066
0.008338697
0.0069096535
0.0060149038
0.0054829688
0.0051525211
0.0049399765
0.0048004754
0.0047070376
0.0046431176
0.0045988368
0.0045676937
0.0045461458
0.0045310206
0.0045215873
0.004513767
0.42850997
0.44648271
0.44420618
0.4484701
0.46591362
0.49112529
0.51815386
0.53257878
0.49672992
0.40903988
0.33129007
0.29873862
0.29892507
0.29396155
0.25138362
0.17359859
0.090192783
0.03818384
0.016984871
0.010422354
0.0081022747
0.0068260407
0.0059996604
0.005484221
0.0051564966
0.0049438438
0.0048035799
0.0047093368
0.0046447391
0.0045999934
0.004568564
0.004546869
0.0045316741
0.0045222495
0.0045143759
0.4252828
0.44585806
0.44465415
0.44763301
0.4630325
0.48792271
0.51626774
0.53930243
0.51933329
0.44514761
0.37641021
0.35604098
0.37795771
0.40724942
0.39849841
0.32444411
0.20206678
0.090595454
0.033928512
0.01498411
0.0098608007
0.007907445
0.0067736454
0.0059984465
0.0054918925
0.005164163
0.0049498721
0.0048078806
0.0047122719
0.0046467172
0.0046013395
0.0045695265
0.0045476381
0.0045323497
0.004522924
0.0045149823
0.42151557
0.44410912
0.44455555
0.44708643
0.46098507
0.48377245
0.51327476
0.54334107
0.53723483
0.47591303
0.41523822
0.40411467
0.44221896
0.49961724
0.53368895
0.49613982
0.36868249
0.20145672
0.077996428
0.027538135
0.013180068
0.0094535066
0.0077678472
0.0067429951
0.0060050833
0.0055038563
0.0051743656
0.0049572978
0.0048129008
0.0047155501
0.0046488509
0.004602768
0.0045705195
0.0045484192
0.004533025
0.0045235923
0.0045155702
0.41745778
0.4414072
0.44396603
0.44695745
0.45991295
0.4805163
0.50859733
0.543974
0.55185498
0.50178827
0.44801653
0.44315447
0.49102517
0.56583538
0.62985607
0.63913584
0.54798343
0.3644688
0.17235696
0.059108631
0.021445885
0.011918646
0.0091677243
0.0076717683
0.0067240126
0.0060157531
0.0055181245
0.0051857888
0.0049652882
0.0048181397
0.004718884
0.0046509707
0.0046041723
0.0045714926
0.0045491781
0.0045336796
0.004524237
0.0045161254
0.41340517
0.43796784
0.44296393
0.4473206
0.46003295
0.47833293
0.50417416
0.54134555
0.56264488
0.52382008
0.47542716
0.47428725
0.52673462
0.60860578
0.68742933
0.72643761
0.68831845
0.53890281
0.31523052
0.12838721
0.041777847
0.017119814
0.0111793
0.0089449899
0.0076010598
0.006710015
0.0060271505
0.005532553
0.0051970966
0.0049730568
0.0048231505
0.0047220246
0.0046529467
0.004605469
0.0045724039
0.0045498879
0.0045342947
0.0045248424
0.0045166357
0.4096948
0.43404776
0.44166528
0.44823109
0.4614443
0.47749089
0.50038425
0.5376085
0.56817078
0.54442652
0.49807812
0.49871468
0.55233153
0.63474633
0.71534025
0.76626293
0.76819502
0.677345
0.47631063
0.24014631
0.08568108
0.029416772
0.014670784
0.010751093
0.0087774662
0.0075435605
0.0066959777
0.0060359728
0.0055451361
0.0052071315
0.0049799542
0.0048275744
0.0047247749
0.0046546823
0.0046066004
0.0045732092
0.0045505288
0.0045348543
0.0045253963
0.0045170914
0.42994162
0.40657185
0.44022451
0.44973559
0.46416997
0.47810075
0.49749234
0.53326866
0.57052464
0.56099538
0.51744082
0.51781461
0.57000015
0.64965747
0.72637127
0.77746718
0.7991355
0.76117969
0.61628292
0.37802964
0.16308533
0.054666412
0.022052097
0.013400305
0.010420873
0.0086435777
0.0074907927
0.0066780567
0.0060394971
0.0055542796
0.0052150031
0.0049854909
0.0048311443
0.0047269967
0.0046560928
0.0046075268
0.0045738815
0.0045510816
0.0045353448
0.0045258889
0.0045174857
0.43887009
0.42598316
0.40418636
0.45189101
0.46816462
0.48015042
0.49568103
0.5286872
0.5704182
0.57348305
0.5353882
0.52978914
0.58256991
0.65690046
0.72757346
0.77446399
0.80245872
0.79964645
0.71527536
0.51388805
0.26859891
0.10201285
0.037023849
0.018140999
0.012718074
0.010150889
0.0085275794
0.0074367878
0.006653641
0.0060359407
0.0055588985
0.0052201045
0.0049893404
0.004833693
0.0047286217
0.0046571245
0.0046082198
0.004574406
0.0045515313
0.0045357581
0.0045263132
0.0045178153
0.45479086
0.43787881
0.4225353
0.40261829
0.47331898
0.48350085
0.49497909
0.52426993
0.5682379
0.58218882
0.55118055
0.54084959
0.58664076
0.66067328
0.7237671
0.76500981
0.79323112
0.80988928
0.77440366
0.62691514
0.38662129
0.17331867
0.063408734
0.027311063
0.016186763
0.012268751
0.0099287883
0.0084184234
0.0073778374
0.0066213239
0.0060245201
0.0055584196
0.005222112
0.0049913413
0.0048351428
0.0047296028
0.0046577529
0.0046086639
0.0045747707
0.0045518717
0.0045360891
0.0045266637
0.0045180782
0.47946832
0.45865136
0.43760709
0.41980179
0.40189847
0.48790609
0.49528235
0.52023869
0.56464416
0.58736453
0.56411541
0.55061555
0.58920519
0.65828305
0.7182852
0.75314319
0.77905541
0.80532658
0.80330765
0.70997392
0.50004336
0.2624605
0.10644907
0.043055245
0.022167544
0.015190458
0.011875884
0.0097332215
0.008309048
0.0073120625
0.006580738
0.0060053611
0.0055527428
0.0052209651
0.0049914728
0.0048355056
0.0047299096
0.0046579729
0.0046088558
0.0045749715
0.0045520982
0.0045363339
0.004526939
0.0045182739
0.49300356
0.48635056
0.46380183
0.43783452
0.41796521
0.40199139
0.49639481
0.5167278
0.56000659
0.58943684
0.57386833
0.55881574
0.59031437
0.65264922
0.71069914
0.74029221
0.76341636
0.79389701
0.81294095
0.76481998
0.59754732
0.35920303
0.16553223
0.067207894
0.032383462
0.019631904
0.014603669
0.0115445
0.0095492922
0.0081953789
0.0072389152
0.0065323693
0.0059792876
0.0055421658
0.0052168176
0.0049898192
0.0048348272
0.0047295569
0.0046577938
0.0046087996
0.0045750106
0.0045522112
0.0045364928
0.0045271395
0.004518405
0.49817119
0.4983488
0.49344362
0.46825439
0.43867613
0.41714446
0.40280672
0.51350298
0.55534892
0.58856706
0.58042149
0.5652555
0.59036603
0.64584081
0.69849176
0.72847382
0.74841897
0.77998694
0.81170574
0.79777553
0.67476467
0.45361324
0.23584527
0.10230154
0.047726976
0.026812892
0.018380095
0.014110533
0.011250045
0.009367436
0.0080754771
0.0071587672
0.0064773372
0.0059475487
0.005527275
0.0052099714
0.0049865623
0.0048331349
0.0047285842
0.0046572368
0.0046085057
0.0045748935
0.0045522139
0.0045365675
0.0045272672
0.0045184748
0.51104512
0.50038362
0.50342219
0.49999949
0.4727249
0.44020334
0.41737271
0.40420916
0.54824311
0.58604986
0.58382372
0.56983696
0.58967988
0.63867308
0.68761261
0.7142972
0.73545021
0.76581252
0.80502539
0.81578691
0.73287411
0.53846466
0.31162111
0.14806345
0.068767186
0.037963631
0.024096544
0.017683864
0.013666161
0.010972208
0.0091821346
0.0079489894
0.0070724713
0.006417164
0.00591156
0.0055088247
0.0052008113
0.0049818868
0.0048305135
0.0047270449
0.0046563311
0.0046079903
0.0045746289
0.0045521116
0.004536562
0.0045273259
0.0045184876
0.54126485
0.50965196
0.50263081
0.50773287
0.50544232
0.47703033
0.44243966
0.41859526
0.40604439
0.58058081
0.58433298
0.5726036
0.58840551
0.63175265
0.67739189
0.70287906
0.71967734
0.75172035
0.79609931
0.82462925
0.77537539
0.61098372
0.38726252
0.2011188
0.096397733
0.053485359
0.033073949
0.022799244
0.017172279
0.013263993
0.010697551
0.0089909658
0.0078167276
0.0069806885
0.0063535647
0.0058727038
0.0054876293
0.0051898111
0.004975923
0.0048270725
0.004725
0.0046551104
0.0046072725
0.0045742283
0.0045519117
0.0045364812
0.0045273204
0.004518449
0.5733493
0.53546818
0.50918808
0.5045856
0.51083783
0.50953298
0.48110128
0.44528622
0.42066155
0.4081312
0.58244421
0.57371141
0.58672522
0.62542991
0.66878189
0.69308622
0.70636123
0.73410085
0.78375364
0.82915195
0.80662344
0.67125859
0.4587305
0.25834632
0.13102222
0.073278929
0.046629155
0.030898103
0.022119737
0.016694697
0.012878169
0.010418765
0.0087939075
0.0076802279
0.0068840802
0.0062882656
0.0058322065
0.0054644919
0.0051773012
0.0049688648
0.00482293
0.0047225147
0.0046536113
0.0046063735
0.0045737045
0.0045516221
0.0045363312
0.0045272564
0.0045183644
0.57867757
0.56557267
0.53119257
0.50938546
0.50596464
0.51238025
0.51208161
0.48469516
0.44851717
0.4233309
0.41025943
0.57350906
0.58491065
0.6200627
0.66213024
0.68613938
0.69547073
0.71783743
0.76556009
0.82539888
0.83423888
0.72186184
0.52358647
0.31702511
0.17133487
0.097151809
0.064836957
0.044021717
0.030127995
0.021678148
0.016225373
0.012491561
0.010133461
0.0085926524
0.0075411623
0.0067853349
0.0062228407
0.0057910834
0.0054401588
0.0051635796
0.0049609196
0.0048182019
0.0047196543
0.0046518712
0.0046053151
0.0045730703
0.0045512519
0.0045361194
0.0045271408
0.0045182395
0.5724206
0.5737819
0.55836228
0.52833519
0.51004
0.50654668
0.51215719
0.51294452
0.48744715
0.4518304
0.42630088
0.41201488
0.58326579
0.6160239
0.65768791
0.68231695
0.6877783
0.70369226
0.74695221
0.81276537
0.85312441
0.77023603
0.58270751
0.3748399
0.21561885
0.12572248
0.086739913
0.063324374
0.043867387
0.030018723
0.021311603
0.015750067
0.012095913
0.0098429189
0.0083898101
0.0074004271
0.0066872254
0.0061586015
0.0057501563
0.0054150914
0.005148974
0.0049522833
0.004812999
0.004716482
0.0046499265
0.0046041184
0.0045723394
0.0045508116
0.0045358544
0.0045269799
0.0045180779
0.58216439
0.57098114
0.56854549
0.5523947
0.52686927
0.5109905
0.50619192
0.51000288
0.51175312
0.48900063
0.45480662
0.42880914
0.41336899
0.61369956
0.65563989
0.68163074
0.68358321
0.69205373
0.72920103
0.7963769
0.85813036
0.82422066
0.63941961
0.43123326
0.2623908
0.15975263
0.11265682
0.087640001
0.065625891
0.045091559
0.030182866
0.020943323
0.015253207
0.011690548
0.0095507481
0.0081879743
0.007258726
0.0065920789
0.0060965182
0.0057098824
0.0053897194
0.0051337815
0.0049431308
0.0048074239
0.0047130571
0.0046478106
0.0046028042
0.0045715277
0.0045503136
0.0045355435
0.0045267701
0.0045177945
0.61342119
0.58194817
0.56967516
0.56379869
0.54810495
0.52675379
0.51211181
0.50480351
0.50579443
0.5082138
0.48888796
0.45649266
0.43092025
0.41398725
0.65617552
0.68377843
0.68273442
0.68324573
0.71274096
0.77867652
0.85389968
0.86273816
0.71592268
0.48723553
0.31129721
0.1999006
0.14408854
0.11764008
0.094806326
0.070240522
0.046986643
0.030399748
0.020529692
0.014729734
0.011280378
0.0092615037
0.0079887083
0.0071207381
0.0065014283
0.0060371282
0.0056705804
0.0053644024
0.0051182472
0.0049336131
0.0048015666
0.0047094317
0.0046455559
0.0046013967
0.0045706534
0.0045497669
0.0045351735
0.0045263608
0.0045174714
0.65927893
0.61537095
0.5830775
0.56899895
0.5603292
0.54576719
0.52792722
0.51331866
0.50234811
0.49950193
0.50203352
0.48629311
0.45683036
0.43218405
0.41331366
0.68827789
0.68450709
0.67701871
0.69847887
0.76030251
0.84456079
0.88567633
0.78575489
0.56618614
0.36185926
0.24608105
0.18520926
0.15605875
0.13322348
0.10629161
0.0761317
0.049060514
0.030529278
0.020051888
0.01418706
0.010873882
0.0089787901
0.0077914671
0.0069897723
0.0064161723
0.0059807402
0.0056325097
0.0053394085
0.0051025654
0.0049238576
0.0047955047
0.0047056542
0.0046431984
0.004599922
0.0045697273
0.0045491394
0.0045343663
0.0045259173
0.004517119
0.69425211
0.66473764
0.61940535
0.58570036
0.56943095
0.55872451
0.54551333
0.53032826
0.5145208
0.49882504
0.49130843
0.49301541
0.48105957
0.45547212
0.43189234
0.41059138
0.68763464
0.67264851
0.68665141
0.74313696
0.83078195
0.89792226
0.84281413
0.64730293
0.42842716
0.29564264
0.23719571
0.21011858
0.18685371
0.15730509
0.12111112
0.082479986
0.050960502
0.03050003
0.019519528
0.01363754
0.010471829
0.0087004804
0.0076023047
0.0068680902
0.0063368262
0.0059275304
0.0055958576
0.0053149232
0.005086887
0.0049139692
0.0047893089
0.0047017782
0.0046407746
0.0045983941
0.0045686898
0.0045477105
0.0045335364
0.0045254516
0.0045167397
0.6903511
0.70034744
0.67129416
0.62496398
0.5899049
0.5713976
0.55932979
0.54736741
0.53381153
0.51553537
0.49426437
0.48150004
0.48186629
0.47305787
0.45158548
0.42908362
0.4048144
0.6692432
0.67710449
0.72824007
0.81576467
0.90037103
0.88744343
0.7237328
0.50255175
0.34689577
0.29639425
0.2818097
0.26782061
0.23588158
0.1895961
0.13854032
0.088849323
0.052488388
0.030323769
0.018905777
0.013062435
0.010070652
0.0084268017
0.0074276294
0.0067568706
0.0062635533
0.0058775391
0.0055607404
0.005291068
0.0050713296
0.0049040409
0.0047830507
0.0046978523
0.0046383036
0.0045967113
0.0045662094
0.004546291
0.0045327121
0.0045249633
0.0045163375
0.66572613
0.69083889
0.70444003
0.67731091
0.63169464
0.59572381
0.5751692
0.56223854
0.5512003
0.53806984
0.51603576
0.48896128
0.46997418
0.46753089
0.46145489
0.44407331
0.42255568
0.39473929
0.66936797
0.71627873
0.80170849
0.89665463
0.91943081
0.79171536
0.5794339
0.40614165
0.34051333
0.36395397
0.37544431
0.35882983
0.30513412
0.2301538
0.15789633
0.095031958
0.053551497
0.029782259
0.018130933
0.012458292
0.0096732644
0.0081721159
0.00727064
0.006656404
0.0061962379
0.0058306845
0.0055272115
0.0052679179
0.0050559909
0.0048941613
0.0047767932
0.0046939031
0.0046356217
0.0045925783
0.0045638001
0.0045449254
0.0045318895
0.0045244567
0.0045159151
0.66282492
0.66097522
0.68786768
0.70482091
0.68190532
0.6392796
0.60303189
0.58078726
0.56728471
0.55655724
0.54279476
0.51595474
0.48134638
0.4554437
0.44922517
0.44524743
0.43171206
0.41092272
0.378947
0.70752849
0.79014057
0.89013783
0.94001563
0.84913521
0.65442233
0.47138846
0.39009812
0.41191293
0.49455613
0.51657673
0.48485169
0.39515692
0.2789578
0.17859943
0.10065456
0.053333332
0.028673977
0.017182931
0.011840797
0.0092907245
0.0079459724
0.0071321965
0.0065663204
0.0061345356
0.0057867909
0.0054952723
0.0052455238
0.0050409601
0.0048844061
0.0047705746
0.0046896751
0.0046288734
0.0045886382
0.0045615332
0.0045436015
0.0045310736
0.004523933
0.0045154777
0.70195891
0.65669448
0.65378613
0.68035431
0.70026766
0.68505939
0.647208
0.6114566
0.58799857
0.57397908
0.56358047
0.54605238
0.51392694
0.47132905
0.43717154
0.42620165
0.42345437
0.41321056
0.3927376
0.35578325
0.7821905
0.88291552
0.95335019
0.89500862
0.72365287
0.53971165
0.44486299
0.46316991
0.56092664
0.68678398
0.70516635
0.64201084
0.50145707
0.3347539
0.19796771
0.10304833
0.051481839
0.027036905
0.016114126
0.011237373
0.0089504059
0.0077510647
0.0070116082
0.0064857825
0.0060779483
0.0057456364
0.0054648898
0.0052239287
0.0050263106
0.0048748207
0.0047640034
0.0046788828
0.004622542
0.0045849941
0.0045593822
0.0045423242
0.0045302646
0.0045233957
0.0045150283
0.77850361
0.69926303
0.6499177
0.64299681
0.66805034
0.69228756
0.68629036
0.65450131
0.6202609
0.59644436
0.58223966
0.5688277
0.54892966
0.51053318
0.45775749
0.41430911
0.39772677
0.39520086
0.38742853
0.36670178
0.32330836
0.87708242
0.95954634
0.93206731
0.7839717
0.60742677
0.50316056
0.5167674
0.62565183
0.78821888
0.94014727
0.94066351
0.82600133
0.6163978
0.38777502
0.20818141
0.1006418
0.048180602
0.025051149
0.015039385
0.010684523
0.0086615781
0.0075863569
0.0069072069
0.0064136877
0.0060259249
0.0057069979
0.0054360137
0.0052031594
0.0050120758
0.0048648231
0.0047471281
0.0046688958
0.0046167705
0.0045815942
0.0045573517
0.0045410897
0.0045294655
0.004522847
0.0045145704
0.87395628
0.77929972
0.69821516
0.64202122
0.62813979
0.65056173
0.67968102
0.68395721
0.65978256
0.62892364
0.6056346
0.58848754
0.57496457
0.55156637
0.50414408
0.43946146
0.38583979
0.36316268
0.35990924
0.35376049
0.33123815
0.2799319
0.96101501
0.9598549
0.83395043
0.67105624
0.56270534
0.57084662
0.68642376
0.87364361
1.0927443
1.2506278
1.2160924
1.0259896
0.72036158
0.41611532
0.20482685
0.093757394
0.043966806
0.022939871
0.014049837
0.010217344
0.0084231817
0.0074490254
0.0068161055
0.0063489129
0.0059779259
0.0056706723
0.005408576
0.0051831981
0.0049974174
0.0048393223
0.0047316685
0.0046599066
0.0046114649
0.0045784365
0.0045554313
0.0045398987
0.004528678
0.0045222901
0.0045141066
0.95965776
0.87450813
0.78394821
0.69840382
0.63249945
0.60907693
0.62740509
0.66111195
0.67646844
0.66249846
0.63670222
0.6121295
0.5954525
0.58104948
0.5524971
0.49328069
0.41483063
0.3507351
0.32219832
0.31772641
0.31197095
0.28516109
0.22520569
0.97675715
0.87419425
0.72746721
0.62098325
0.62370959
0.74123153
0.94212321
1.1939821
1.4640815
1.5973312
1.5052925
1.1964593
0.77637454
0.41071029
0.18905128
0.084100775
0.039471035
0.020953954
0.013204619
0.0098359754
0.0082294549
0.0073333611
0.0067358085
0.006290397
0.0059334293
0.005636461
0.0053824556
0.0051628854
0.0049608446
0.0048160535
0.0047178876
0.004651752
0.0046066068
0.0045754975
0.004553617
0.0045387502
0.0045279048
0.0045217273
0.0045136357
0.98449819
0.95788933
0.8796525
0.79216793
0.69919288
0.62105113
0.58605531
0.59881829
0.63616838
0.66342704
0.66130987
0.63996828
0.61766052
0.602366
0.5863055
0.54994275
0.47569401
0.38197818
0.3081982
0.2751963
0.26948497
0.26156467
0.22831037
0.16331383
0.90461703
0.77490658
0.67555033
0.67387965
0.78891485
0.99400334
1.2597629
1.5573242
1.8560631
1.9254931
1.7285811
1.2829787
0.76646875
0.37554236
0.16592894
0.07368677
0.035213882
0.019254251
0.012514952
0.0095302583
0.0080729979
0.0072329559
0.006665334
0.0062370414
0.0058919115
0.0056041112
0.0053561245
0.0051138304
0.0049273792
0.0047953992
0.0047055242
0.0046443805
0.0046021488
0.0045727637
0.0045519041
0.0045376446
0.0045271469
0.0045211559
0.0045131562
0.92489344
0.98600933
0.95847814
0.88935759
0.80297842
0.70007172
0.60767515
0.55968009
0.56545818
0.6049313
0.64300069
0.65250088
0.63917456
0.62221516
0.60824419
0.58915693
0.54128992
0.44837284
0.33897915
0.25821115
0.22371304
0.2168197
0.20405311
0.16511109
0.10431153
0.8132009
0.72435226
0.72020549
0.82926831
1.0310417
1.2963957
1.6011921
1.905733
2.167084
2.1462801
1.8295852
1.2674897
0.69891151
0.32313648
0.14122216
0.063954092
0.031528964
0.017861515
0.011964679
0.0092875486
0.0079426145
0.0071467715
0.0066024421
0.0061877349
0.0058528754
0.0055717064
0.0052940147
0.0050687127
0.0048975727
0.0047769912
0.0046944736
0.0046377013
0.0045980594
0.0045702213
0.0045502891
0.00453658
0.0045263919
0.0045205809
0.0045126703
0.84279298
0.93691045
0.98422205
0.96241041
0.90301719
0.81524288
0.70041802
0.592458
0.5307915
0.52846228
0.5675987
0.61336901
0.63809445
0.6361045
0.62459142
0.61170989
0.58690641
0.52270643
0.40747344
0.28477793
0.20272369
0.17106812
0.16273673
0.14473465
0.10539786
0.058766456
0.76625784
0.76200825
0.86285907
1.0559522
1.3120822
1.6057043
1.9085631
2.154867
2.3208124
2.234418
1.8146478
1.1660455
0.59663735
0.26737729
0.11900135
0.055671125
0.028520761
0.016749247
0.011530352
0.0090950067
0.007832803
0.0070723075
0.0065449784
0.0061416184
0.005813966
0.0054945879
0.005236951
0.0050282023
0.0048709818
0.00476067
0.0046845765
0.0046316497
0.0045943089
0.0045678585
0.0045487659
0.004535532
0.0045256376
0.0045200051
0.0045121801
0.80123128
0.86533222
0.94223858
0.98215912
0.97027806
0.91980453
0.82787494
0.69950775
0.57568083
0.50058518
0.48970497
0.52630298
0.58426789
0.62134807
0.62914455
0.6230497
0.61048166
0.575679
0.48817849
0.34975826
0.22087245
0.14699346
0.1217772
0.11196087
0.091456941
0.059284293
0.030747642
0.79894434
0.89098323
1.0719443
1.3139262
1.5886086
1.8664173
2.0961293
2.2405247
2.3528308
2.2322825
1.704296
1.0072234
0.48557224
0.21813712
0.10083514
0.049072204
0.026149141
0.015871306
0.011186005
0.0089375253
0.0077397368
0.0070052343
0.0064914832
0.0060957915
0.0057172891
0.0054243737
0.0051855604
0.0049917674
0.0048474388
0.004746188
0.0046757126
0.004626166
0.0045908707
0.0045656616
0.004547287
0.0045345046
0.0045248862
0.0045194308
0.0045116876
0.83123328
0.83000761
0.88238276
0.94460635
0.98240261
0.98248129
0.93873639
0.83984827
0.69678692
0.55763422
0.47034214
0.4510567
0.49037312
0.55355332
0.59948544
0.61625351
0.61528228
0.60088878
0.54927329
0.43113424
0.27479518
0.1545465
0.097885658
0.080310947
0.069785928
0.051578995
0.030890714
0.016350955
0.91504171
1.0823489
1.3073164
1.5608886
1.812172
2.0047667
2.1120611
2.2234088
2.3512595
2.1634611
1.5181065
0.82457611
0.38623845
0.1795938
0.086736228
0.044030028
0.024323042
0.015177405
0.010905275
0.0088035157
0.0076563489
0.0069427066
0.0064382142
0.0059719125
0.0056303666
0.0053615796
0.0051390547
0.0049592831
0.0048266315
0.004733347
0.0046677724
0.0046211979
0.0045877171
0.004563551
0.0045458566
0.0045334996
0.0045241392
0.00451886
0.0045111943
0.93666633
0.85896269
0.85489158
0.89670438
0.94778134
0.98717447
0.99891978
0.95871383
0.8502665
0.69152026
0.53857724
0.44069644
0.41174926
0.4517693
0.518108
0.57072881
0.5951041
0.59778495
0.57616206
0.49807369
0.347553
0.19130859
0.096550906
0.060637581
0.049409398
0.039912316
0.027312551
0.016245504
0.0098118071
1.0895756
1.2962841
1.5293785
1.7576443
1.9199616
1.9802677
2.0415281
2.209896
2.3498275
2.0225035
1.2820719
0.6510394
0.3092398
0.15169212
0.076436646
0.040290133
0.0228867
0.014602753
0.010660462
0.0086802732
0.0075769323
0.0068794811
0.0062727983
0.0058625433
0.0055535118
0.0053049818
0.0050972529
0.0049304303
0.0048082958
0.0047219632
0.0046606606
0.0046166942
0.0045847182
0.0045615381
0.0045444749
0.0045325179
0.0045233989
0.0045182941
0.0045107016
1.0954074
0.95568484
0.8852396
0.87821818
0.91095907
0.95483783
0.99762666
1.0185128
0.97878171
0.85768467
0.6827436
0.51832949
0.39792398
0.36834221
0.40938405
0.47682606
0.53338687
0.56249095
0.56449209
0.52539998
0.41241919
0.24599205
0.11568167
0.054894159
0.036458187
0.029160202
0.022051198
0.014803216
0.0097082831
0.0071236447
1.2844241
1.4986246
1.7079805
1.8486085
1.8742427
1.8779582
1.9942972
2.2445685
2.3298939
1.8043849
1.0321572
0.51110839
0.25552494
0.13181549
0.068987305
0.037351124
0.021680617
0.014096943
0.010429729
0.0085577687
0.0074937411
0.0066420045
0.0061316384
0.0057672376
0.0054848711
0.0052541956
0.0050597589
0.00490495
0.0047921687
0.0047118753
0.0046542858
0.0046124518
0.0045818901
0.0045596214
0.004543141
0.0045315612
0.004522666
0.0045177345
0.004510211
1.2745033
1.1009178
0.97586571
0.91171372
0.90214531
0.92741519
0.96736203
1.0134626
1.0406055
0.99652218
0.86030979
0.66882141
0.47204693
0.3484666
0.32154434
0.3631664
0.4292725
0.48550511
0.51417335
0.50680657
0.43969694
0.29948383
0.14866347
0.061473121
0.03113113
0.022308909
0.017272122
0.012764307
0.0091996763
0.0070843679
0.0059444364
1.4722876
1.6657382
1.791155
1.7945473
1.7579344
1.8083733
2.0130877
2.3243717
2.2490718
1.5274184
0.80981463
0.41348551
0.22048057
0.11769848
0.063153428
0.034901568
0.020614993
0.013627258
0.01020694
0.0084260333
0.0071162316
0.0064518352
0.0060115164
0.0056829124
0.0054238003
0.0052085648
0.0050263134
0.0048825611
0.0047780079
0.0047029321
0.0046483265
0.0046084971
0.0045792277
0.0045577969
0.0045418556
0.0045306293
0.004521942