/*--------------------------------*- C++ -*----------------------------------*\
  =========                 |
  \\      /  F ield         | OpenFOAM: The Open Source CFD Toolbox
   \\    /   O peration     | Website:  https://openfoam.org
    \\  /    A nd           | Version:  8
     \\/     M anipulation  |
\*---------------------------------------------------------------------------*/
FoamFile
{
    version     2.0;
    format      ascii;
    class       volScalarField;
    location    "200.966377299857271";
    object      p;
}
// * * * * * * * * * * * * * * * * * * * * * * * * * * * * * * * * * * * * * //

dimensions      [0 2 -2 0 0 0 0];

internalField   nonuniform List<scalar> 
9200
(
0.00058769632
0.00060046539
0.0012664641
0.00060755008
0.0012920136
0.0020875459
0.00062287253
0.0013125131
0.0021280933
0.0027942139
0.00063386431
0.0013488398
0.0021680881
0.0028472372
0.0035004476
0.00063785153
0.001382774
0.0022302717
0.0029072704
0.003567825
0.0041408147
0.00063198358
0.0014074092
0.0022912721
0.0029982869
0.0036512178
0.0042212878
0.0047281499
0.0005959092
0.0014157795
0.0023436692
0.0030974473
0.0037760238
0.0043271024
0.0048222045
0.0052526559
0.00054985196
0.0013934485
0.0023787113
0.003199286
0.0039189733
0.0044843137
0.0049521239
0.0053590944
0.0057138354
0.00047401701
0.0013394323
0.0024098097
0.0032905039
0.0040741995
0.0046705008
0.0051450511
0.0055109193
0.0058309493
0.0061119951
0.00037958677
0.0012387592
0.002415069
0.0033582067
0.0042325568
0.004883617
0.0053805306
0.0057354116
0.0060018949
0.0062372285
0.0064503748
0.00027699983
0.0011390084
0.0023615846
0.0033812854
0.0043746877
0.005117585
0.0056575919
0.0060133116
0.0062531059
0.0064236742
0.0065813466
0.0067322901
0.00014505091
0.0010326562
0.0021862069
0.0033561139
0.0044936656
0.0053646241
0.005972184
0.006344067
0.0065652391
0.006695695
0.0067798117
0.0068671634
0.0069613174
1.6581295e-05
0.00089391658
0.0018729442
0.0032263207
0.0045812167
0.0056261087
0.0063262766
0.0067276159
0.0069358576
0.0070340188
0.0070671161
0.0070748183
0.0070982631
0.0071413962
-8.3936364e-05
0.00075969877
0.0014244988
0.0029480389
0.0046021464
0.0058963529
0.0067284646
0.0071688752
0.0073649486
0.007433003
0.0074243091
0.0073734304
0.0073125825
0.0072785037
0.0072766973
-0.00015236421
0.00062633764
0.00081754303
0.0024818185
0.0045254898
0.0061522282
0.0071751068
0.0076748827
0.0078573229
0.0078891599
0.0078415506
0.0077445557
0.0076193633
0.0074969214
0.0074119398
0.0073715684
-0.00014702066
0.00043368569
6.200382e-06
0.0017720455
0.004317433
0.0063839982
0.0076743519
0.0082487388
0.0084205144
0.0084020848
0.0083120953
0.0081752103
0.0080023454
0.0078087286
0.0076316381
0.0075028208
0.0074304608
-1.8932628e-05
0.0001982224
-0.0011250928
0.00071885033
0.0039423431
0.0065769409
0.0082354627
0.0089068054
0.0090539622
0.0089787476
0.0088300958
0.0086585615
0.008449102
0.0082016191
0.0079448602
0.0077207505
0.0075555495
0.0074579344
0.00024597703
-2.5930421e-05
-0.002665285
-0.00073714845
0.0033070833
0.0066975213
0.0088652816
0.0096651362
0.0097695261
0.0096114888
0.0093941764
0.0091838899
0.0089529495
0.0086613971
0.008343114
0.0080313221
0.0077684402
0.0075746378
0.0074586127
0.00063835232
-0.0002174894
-0.0046874947
-0.0026025541
0.0023997715
0.0066696504
0.0095616498
0.010544313
0.010588762
0.010304667
0.0099874958
0.0097208144
0.0094924586
0.0091766333
0.0088105593
0.0084302063
0.0080718828
0.0077789724
0.0075646614
0.0074370422
0.0010963373
-0.00040287823
-0.0073251961
-0.0049167378
0.0011636038
0.0065206208
0.010291681
0.01156141
0.011532374
0.011075871
0.010611087
0.010268231
0.01002203
0.0097244523
0.0093370314
0.0089025506
0.0084667298
0.0080702103
0.0077567345
0.0075302079
0.0073976472
0.0015180366
-0.00064083892
-0.010624569
-0.0077822071
-0.00061019371
0.006204707
0.011109249
0.012714718
0.012618964
0.011939371
0.011266434
0.010814178
0.010542189
0.010296894
0.0099059955
0.0094428084
0.0089402636
0.0084555341
0.0080303698
0.0077062656
0.0074758601
0.0073446757
0.0018264408
-0.00085393747
-0.0145994
-0.011357284
-0.0029905416
0.0054830181
0.01208081
0.01399701
0.013860073
0.012904102
0.011952415
0.01133698
0.011030258
0.010851854
0.010522485
0.010044667
0.0094928883
0.0089239121
0.0083996526
0.007956823
0.0076322487
0.0074060916
0.0072820404
0.0019651484
-0.0010243727
-0.018803569
-0.015595517
-0.0058251432
0.0041917957
0.013091121
0.015503277
0.015229917
0.013978834
0.012665707
0.011817121
0.011449629
0.011345562
0.011139247
0.010705006
0.010123905
0.0094816964
0.0088541974
0.0083022003
0.0078541912
0.0075393711
0.0073249848
0.0072133339
0.0019107473
-0.0011491613
-0.022818982
-0.020894449
-0.0094395516
0.0021721971
0.013989285
0.017211378
0.016740123
0.015168948
0.013399481
0.012220609
0.011771697
0.011745042
0.011710961
0.011389979
0.010829822
0.010131537
0.0094061216
0.0087339267
0.0081678946
0.0077273455
0.0074320255
0.0072361805
0.0071421497
0.0017811681
-0.0012817662
-0.026741908
-0.026975127
-0.014304321
-0.00087151088
0.014687536
0.01897751
0.018408795
0.01644232
0.014136731
0.012515052
0.011914743
0.011997932
0.01220532
0.012068799
0.011587235
0.010872701
0.010059892
0.0092676018
0.0085666304
0.0080021462
0.0075813936
0.0073142784
0.0071435337
0.007071956
0.0017128112
-0.0015411004
-0.030591637
-0.033222897
-0.019961095
-0.0043178862
0.015179458
0.020772835
0.020115247
0.017774393
0.014858298
0.012649837
0.011851452
0.012008436
0.012577068
0.012714811
0.012379192
0.011692629
0.010818395
0.0099084559
0.0090694825
0.0083581965
0.0078104545
0.0074216094
0.0071907649
0.0070513041
0.0070049664
0.0016997092
-0.0020460064
-0.034197796
-0.039269653
-0.025677469
-0.0076191218
0.0152993
0.022585808
0.021710128
0.019123623
0.015511121
0.012582333
0.011449155
0.011972057
0.012770892
0.01329339
0.01319072
0.012585523
0.011679702
0.010663407
0.0096815122
0.0088176053
0.0081153039
0.0075991369
0.0072522569
0.007066745
0.0069619394
0.0069427289
0.0016965679
-0.0027562769
-0.037406029
-0.044875332
-0.031021586
-0.010948059
0.014645677
0.024286308
0.023084331
0.020350796
0.01605998
0.012285614
0.010624269
0.011293883
0.012735211
0.013762693
0.014003831
0.013547732
0.012646836
0.011539069
0.010411955
0.0093848222
0.0085198187
0.0078449441
0.0073737594
0.0070758838
0.0069433793
0.0068762071
0.0068872253
0.001639423
-0.0035867341
-0.040118913
-0.049860899
-0.035804619
-0.01443596
0.013352183
0.025547086
0.024124305
0.021332242
0.016414228
0.011671951
0.0092706365
0.010087094
0.012285084
0.014063889
0.014792392
0.014574975
0.013723765
0.012543925
0.011273977
0.010068139
0.0090298051
0.0081809182
0.0075527522
0.007137408
0.0068976146
0.0068212078
0.0067969948
0.0068400245
0.0014293655
-0.0044632789
-0.042280739
-0.054101276
-0.039968933
-0.017958112
0.011613348
0.026157726
0.024834309
0.021940301
0.016493719
0.010588413
0.0071819463
0.0081305081
0.011310115
0.014104557
0.015526018
0.015660656
0.014914989
0.013686003
0.012276251
0.010892733
0.0096374522
0.0086118152
0.0078100872
0.0072427432
0.0068945133
0.0067252052
0.0067059412
0.0067263941
0.0068023378
0.0011031045
-0.0052162666
-0.043912703
-0.057579186
-0.043620688
-0.021349405
0.0094728024
0.025963628
0.025057805
0.022060326
0.016269747
0.0089709859
0.0041338738
0.0050539352
0.0095826491
0.013791163
0.01615836
0.016800531
0.016224942
0.014972873
0.013429083
0.011859312
0.010404862
0.0091519822
0.0081580948
0.0074177729
0.0069219869
0.0066533324
0.0065594856
0.0066004806
0.0066659638
0.0067751124
0.0007249984
-0.0058640914
-0.044677113
-0.060348931
-0.046862281
-0.024460041
0.0069388825
0.024902349
0.024698806
0.021591353
0.01567444
0.0068772665
-0.00014491613
0.0005287144
0.0069222602
0.012876831
0.016609019
0.017970701
0.017652584
0.0164111
0.014739355
0.012976627
0.011307468
0.0098323253
0.0086126842
0.0076771107
0.0070139443
0.0066004605
0.006418203
0.0064005127
0.0065051583
0.0066167747
0.0067589438
0.00028185757
-0.0064499728
-0.044996437
-0.062278967
-0.0495333
-0.027273308
0.0041596147
0.022986348
0.023697021
0.020486965
0.014556725
0.0041797325
-0.0060561769
-0.0059074833
0.0031651847
0.011257451
0.01669744
0.019117693
0.019187368
0.017997544
0.01621311
0.014249305
0.012353606
0.01064622
0.0091938776
0.0080336081
0.0071747112
0.0066036321
0.0062851116
0.0061915475
0.0062515999
0.0064214274
0.0065794266
0.0067542
-0.00023502615
-0.0069813299
-0.044741243
-0.063805669
-0.051596888
-0.029842306
0.0013881861
0.020295626
0.022017156
0.018715129
0.012921342
0.00035702841
-0.013987326
-0.014543476
-0.0019396712
0.0086449689
0.016367598
0.020104542
0.020799563
0.019725884
0.01784471
0.015676946
0.013544693
0.011593291
0.0098999004
0.0085050377
0.0074248207
0.0066595733
0.0061921602
0.0059787632
0.0059772083
0.0061162388
0.0063502586
0.0065543843
0.0067609929
-0.00081821288
-0.0074484159
-0.0438526
-0.064294006
-0.053650895
-0.032648452
-0.00144313
0.017113264
0.019691081
0.016239712
0.010753024
-0.004293465
-0.022745141
-0.02422771
-0.0082769321
0.0045846096
0.015420319
0.020920014
0.022377035
0.021573615
0.019619495
0.017255967
0.014875426
0.012668982
0.010727046
0.0090911701
0.007779274
0.0067969903
0.0061408232
0.0057859754
0.0056825144
0.0057769431
0.0059958397
0.0062927588
0.006541901
0.0067792196
-0.0014555067
-0.0078317217
-0.042337142
-0.0637471
-0.054960993
-0.035469261
-0.0055309172
0.013626689
0.016769253
0.013211846
0.0081287016
-0.0094841702
-0.031801133
-0.034657279
-0.016354979
-0.0010070963
0.013539614
0.021507412
0.023871397
0.023463022
0.021512137
0.018963334
0.01633081
0.013860662
0.011664964
0.0097863652
0.0082383922
0.0070284014
0.0061599777
0.0056238829
0.0053887783
0.0053983723
0.005591927
0.0058905382
0.0062501136
0.0065419133
0.006808611
-0.0021360016
-0.0081169431
-0.040190779
-0.062125091
-0.05544202
-0.037739987
-0.0098662529
0.0081729787
0.01373355
0.0098451656
0.0050051207
-0.015208037
-0.041221829
-0.046671096
-0.027421663
-0.0085894377
0.0104504
0.021609081
0.025296786
0.025249009
0.023466372
0.020757666
0.017882734
0.015145752
0.012694201
0.010575718
0.0087960512
0.0073564754
0.0062630179
0.0055201481
0.0051131662
0.0050040515
0.0051293691
0.0054233631
0.0058015825
0.0062222096
0.00655433
0.0068488192
-0.0028388749
-0.0082940356
-0.037420739
-0.059412967
-0.054975471
-0.039396871
-0.014477034
0.0024141449
0.0090042317
0.0065991564
0.0013241675
-0.021333972
-0.050763277
-0.059663068
-0.040779059
-0.018402745
0.0057710421
0.020815608
0.026428187
0.026956957
0.025341521
0.022578521
0.019488913
0.016490058
0.013784589
0.011433814
0.009434758
0.0077752093
0.0064568202
0.0054911642
0.0048833598
0.0046131559
0.00463496
0.0048781322
0.0052721224
0.0057294648
0.0062080484
0.0065793544
0.006899465
-0.0035123937
-0.0083555239
-0.0340671
-0.055641209
-0.053511008
-0.040398598
-0.019065757
-0.0041730301
0.0042428726
0.0024258507
-0.0030010608
-0.027518324
-0.060118647
-0.072841097
-0.05527241
-0.029490525
-0.00039227798
0.018753724
0.026881864
0.028473077
0.027030009
0.024389758
0.021091575
0.01784629
0.014894493
0.012323328
0.01012493
0.0082670529
0.00673711
0.0055477197
0.0047189042
0.0042546774
0.0041276427
0.0042840797
0.0046464667
0.0051393462
0.0056738693
0.0062073851
0.0066165346
0.0069601016
-0.008293457
-0.0040943232
-0.03019951
-0.050880223
-0.051017256
-0.04063911
-0.023543533
-0.011265857
-0.0022077236
-0.0015198998
-0.0074319474
-0.033931337
-0.06904412
-0.085687739
-0.070094587
-0.041131868
-0.0079271175
0.015369096
0.026301909
0.029409091
0.02852336
0.025939268
0.02261488
0.019152743
0.015969901
0.013194696
0.01082339
0.0088009418
0.0070887971
0.0056899695
0.0046348731
0.003951076
0.0036383011
0.0036609155
0.0039546116
0.0044360149
0.0050256924
0.0056346147
0.0062205132
0.0066642551
0.0070299113
-0.02591733
-0.0081110369
-0.0045603197
-0.045251824
-0.047558864
-0.040072874
-0.027834065
-0.018764949
-0.0098710855
-0.0067543217
-0.010967171
-0.038325733
-0.077735603
-0.097595533
-0.084433745
-0.052850372
-0.016496615
0.010736767
0.024653712
0.029454679
0.029591192
0.027175702
0.023934292
0.020331277
0.016944234
0.013985756
0.011472856
0.0093301612
0.0074825693
0.005908136
0.004638011
0.0037221129
0.0031917743
0.0030386277
0.0032159338
0.0036487338
0.00424805
0.004931423
0.0056112959
0.0062468288
0.0067215923
0.0071074127
-0.038921145
-0.021307264
-0.0078183422
-0.0049790258
-0.043316041
-0.038697772
-0.031893192
-0.026527776
-0.018542524
-0.013529768
-0.014796751
-0.041652387
-0.082687198
-0.10881059
-0.098461865
-0.064351504
-0.025655616
0.0051770396
0.021982943
0.028489208
0.029883615
0.028046955
0.024897683
0.021286578
0.017739029
0.014622433
0.012001882
0.0097913768
0.0078717029
0.0061782717
0.0047266831
0.003582819
0.0028127238
0.0024453109
0.0024598201
0.0027958915
0.0033682997
0.0040832788
0.0048567862
0.00560349
0.0062854191
0.0067886585
0.0071919759
-0.038329337
-0.032047254
-0.016530668
-0.007394616
-0.0053502584
-0.036430217
-0.035711222
-0.034480901
-0.028123445
-0.021419792
-0.019309823
-0.044754673
-0.087625246
-0.11621921
-0.11233221
-0.076113205
-0.035302132
-0.0011678463
0.01782169
0.026531125
0.029199177
0.028321001
0.025404365
0.021898788
0.018263605
0.015020514
0.012325786
0.010104103
0.0081902639
0.0064582634
0.0048859549
0.003541601
0.0025249628
0.0019101457
0.0017161063
0.0019057425
0.0024035425
0.0031147558
0.0039421322
0.0048015487
0.0056108442
0.006335516
0.006864893
0.007283798
-0.033309562
-0.032640087
-0.024877403
-0.011683316
-0.0068182607
-0.0056414129
-0.039209409
-0.042575677
-0.038418364
-0.03017188
-0.024454458
-0.047770809
-0.091477505
-0.12545722
-0.12405026
-0.087301291
-0.045189829
-0.0080913939
0.012361672
0.023645297
0.027418406
0.027746763
0.025394597
0.022037713
0.018422869
0.015087695
0.012349035
0.010171191
0.0083513423
0.0066849333
0.0050835377
0.0035958018
0.0023480501
0.0014652723
0.0010184027
0.0010090264
0.0013801579
0.0020412097
0.002889126
0.0038247904
0.0047652902
0.0056327134
0.0063963318
0.0069494302
0.0073823159
-0.04221947
-0.029680486
-0.026521076
-0.017626933
-0.00684171
-0.0061181538
-0.0058223169
-0.050585496
-0.04914336
-0.039538484
-0.030014548
-0.050912454
-0.094159225
-0.13206812
-0.13869774
-0.096881549
-0.054690693
-0.015019057
0.0061373933
0.019892902
0.024679934
0.026146114
0.024701509
0.021618039
0.018110243
0.014728517
0.011967409
0.0098807039
0.0082461659
0.0067705812
0.0052658232
0.0037279622
0.002293956
0.0011414585
0.00040574236
0.00014247166
0.00032888826
0.00088651305
0.0017108024
0.0026920805
0.0037311283
0.004747471
0.0056683059
0.0064671295
0.0070415539
0.0074867583
-0.058226727
-0.044674155
-0.025817434
-0.020290302
-0.010491793
-0.0021059961
-0.0053179085
-0.0058806884
-0.06000669
-0.049285884
-0.03582778
-0.054015531
-0.096043192
-0.13637546
-0.15009478
-0.11049774
-0.065165608
-0.021729842
-2.2402511e-05
0.014945156
0.020956543
0.023420477
0.023148101
0.020566398
0.01720994
0.01385247
0.011076437
0.0091083574
0.0077442504
0.0065998952
0.005352855
0.0039011895
0.0023639607
0.000966338
-8.0685357e-05
-0.00064990003
-0.00071199061
-0.00031970033
0.00042788098
0.0014138192
0.0025239513
0.0036606969
0.0047472601
0.0057167627
0.0065471135
0.0071405286
0.0075964207
-0.070624658
-0.065371069
-0.046380526
-0.021790181
-0.014197868
-0.0036584939
0.0024380279
-0.0044378668
-0.0058166574
-0.059080078
-0.041716142
-0.056889876
-0.096877296
-0.1385262
-0.15910709
-0.12430975
-0.07656207
-0.031634238
-0.0058072298
0.0091490622
0.016394545
0.019553605
0.020606787
0.018794458
0.015658224
0.012360399
0.0095620869
0.0077234683
0.0066947998
0.0060271108
0.0052328951
0.0040532566
0.0025438767
0.00096207018
-0.00039809694
-0.0013176579
-0.0016960105
-0.0015396198
-0.0009321755
6.9522199e-06
0.0011513241
0.0023846177
0.0036126927
0.0047636642
0.0057772382
0.0066356509
0.0072456887
0.0077104842
-0.068480254
-0.080604075
-0.071622708
-0.04727077
-0.017770434
-0.0083320558
0.0027115694
0.0067385945
-0.0035016594
-0.0056340989
-0.047390428
-0.059390405
-0.096319764
-0.13823377
-0.16451416
-0.13655142
-0.086320986
-0.041948032
-0.015555116
0.0029052952
0.011104605
0.014649184
0.016990184
0.016225043
0.013406057
0.010151918
0.0073256988
0.0055799684
0.0049299448
0.0048741929
0.0047556447
0.0040899522
0.002797959
0.0011408161
-0.00050360928
-0.0018049725
-0.0025650311
-0.002724871
-0.0023335457
-0.0015041853
-0.00037406784
0.00092375942
0.0022734053
0.0035861147
0.0047959001
0.0058491892
0.0067320413
0.0073560136
0.0078281851
-0.052781893
-0.077114352
-0.089367264
-0.076851187
-0.047422992
-0.013874567
-0.0028217143
0.0085295221
0.010729516
-0.0025360636
-0.0053523654
-0.061351981
-0.094225897
-0.13528409
-0.16579566
-0.14538316
-0.094807949
-0.05268361
-0.024088522
-0.0080832526
0.0060491285
0.0086569841
0.012295414
0.012786166
0.010413617
0.0071889075
0.0042926054
0.0025572788
0.0022657323
0.002928681
0.0037256668
0.0038741653
0.0030643489
0.0014983218
-0.00035726583
-0.0020498263
-0.0032534988
-0.0038147486
-0.0037284866
-0.0030872574
-0.0020318702
-0.00071378991
0.00073081197
0.0021894157
0.0035803234
0.0048435828
0.0059318015
0.0068348095
0.0074702466
0.0079492142
-0.062205067
-0.057681403
-0.08434102
-0.096581744
-0.080880134
-0.046925253
-0.010140624
0.0022311331
0.013730842
0.014360409
-0.0015752542
-0.0050013518
-0.090593109
-0.12972705
-0.16269512
-0.15016538
-0.10189175
-0.062706071
-0.034401096
-0.017019039
-0.0029609882
0.0028777571
0.0064912406
0.0084776016
0.0066618135
0.0034601466
0.00040720223
-0.0014542561
-0.001479782
-4.0154013e-05
0.0018951358
0.0032160459
0.0032383757
0.0020176601
6.8444249e-05
-0.0019831187
-0.003681508
-0.0047364189
-0.0050561613
-0.0046973797
-0.0037945142
-0.0025123695
-0.0010118083
0.00057193036
0.0021323751
0.0035952271
0.0049056566
0.0060226697
0.0069420708
0.0075885008
0.0080801592
-0.085569198
-0.061795362
-0.061388836
-0.089821716
-0.10191218
-0.083607276
-0.045893888
-0.0066608738
0.0067041125
0.018231484
0.017550519
-0.00069354686
-0.0045053298
-0.12178476
-0.15537361
-0.15057243
-0.10651532
-0.071734259
-0.044710945
-0.0282424
-0.011221268
-0.0058647217
0.00019480207
0.0032466033
0.0021940428
-0.0010612895
-0.0043665672
-0.0065159607
-0.0064926952
-0.0043013625
-0.0010322718
0.0018598216
0.0031638977
0.0026410962
0.00080885304
-0.001564309
-0.0037454753
-0.0054005317
-0.0062404958
-0.0062761456
-0.0056219316
-0.004450163
-0.0029440297
-0.0012679655
0.00044745426
0.0021026429
0.0036293939
0.0049783839
0.0061188499
0.0070549304
0.0077219314
0.0082223844
-0.11182822
-0.079167495
-0.060179547
-0.063873662
-0.093154151
-0.10514759
-0.08501076
-0.044457477
-0.0035261978
0.010449756
0.021934618
0.020271416
5.4341528e-05
-0.003870196
-0.14440089
-0.1465954
-0.10806348
-0.079250848
-0.055004419
-0.039739429
-0.023075285
-0.013142119
-0.0084837411
-0.002468102
-0.0029982539
-0.0063212614
-0.010024459
-0.012686302
-0.012899085
-0.010162323
-0.0054015038
-0.00053167379
0.0026172606
0.0032688185
0.0018581227
-0.00068153904
-0.0034558196
-0.0057031898
-0.0071875963
-0.007748311
-0.0074606387
-0.006493563
-0.0050505421
-0.0033253994
-0.0014809119
0.00035842689
0.0020982664
0.0036772779
0.0050576359
0.0062234703
0.0071919495
0.0078671943
0.008372923
-0.13067716
-0.10007321
-0.071742398
-0.057199286
-0.065144502
-0.094037175
-0.1062226
-0.085161734
-0.042721502
-0.00076681481
0.013574395
0.024988045
0.022196601
0.00083589084
-0.0031673403
-0.13839342
-0.10690084
-0.084580578
-0.064778627
-0.051675922
-0.036846585
-0.023755062
-0.016210898
-0.0096586747
-0.0084384303
-0.012291266
-0.016567542
-0.019972821
-0.020857981
-0.017886423
-0.011642694
-0.0043817372
0.0012887174
0.0037417377
0.0031827345
0.00069366937
-0.0025353625
-0.0055604777
-0.0077884314
-0.0090201249
-0.009239793
-0.0085962422
-0.0073053731
-0.005592196
-0.0036534713
-0.0016486391
0.00030232371
0.0021113983
0.0037334693
0.0051494788
0.0063684186
0.0073403911
0.008022257
0.0085313746
-0.12638715
-0.11508016
-0.087325659
-0.063431272
-0.053208007
-0.065143891
-0.092482476
-0.10521611
-0.084145908
-0.040648258
0.0017136168
0.016563121
0.027077319
0.023812667
0.0017139662
-0.0024659232
-0.10371378
-0.086737702
-0.073568104
-0.063833092
-0.051775952
-0.036779463
-0.02655583
-0.016288439
-0.014547012
-0.018491371
-0.023903172
-0.028532759
-0.03037814
-0.027863401
-0.020224185
-0.010208174
-0.0012451157
0.0038210825
0.0047078661
0.0025971588
-0.00098641992
-0.0047776175
-0.007920716
-0.0099797864
-0.010869895
-0.01069493
-0.0096712636
-0.008050712
-0.0060695978
-0.003924826
-0.0017743031
0.00026854951
0.0021353637
0.0038080364
0.0053034133
0.0065265104
0.0075008291
0.0081857021
0.0086979999
-0.098358455
-0.11177353
-0.098892314
-0.074021836
-0.054597654
-0.048378108
-0.063922599
-0.089084024
-0.10230842
-0.081874213
-0.038368999
0.0044470683
0.018969798
0.028801752
0.025077902
0.0027306877
-0.0018054383
-0.085718215
-0.080844767
-0.075801233
-0.067411967
-0.052657745
-0.040164011
-0.025190703
-0.019368209
-0.024740461
-0.031579722
-0.037956369
-0.041839334
-0.040188429
-0.031857021
-0.018676774
-0.0056028767
0.0031789432
0.0062910004
0.0050311258
0.0012944633
-0.0032475847
-0.0074085149
-0.010493437
-0.012241745
-0.012708055
-0.012095204
-0.010674155
-0.0087205362
-0.0064770344
-0.0041430644
-0.0018714401
0.0002491102
0.0021853268
0.0039739503
0.005473276
0.006699471
0.0076700777
0.0083582394
0.0088726254
-0.082253318
-0.090434475
-0.096416894
-0.082599483
-0.060817645
-0.045455966
-0.042790901
-0.061268032
-0.084378571
-0.097796542
-0.078404681
-0.035786697
0.007418405
0.02114734
0.030017142
0.025914632
0.0038847614
-0.0010883434
-0.086297316
-0.087180437
-0.083740131
-0.070985529
-0.056661753
-0.037225412
-0.025927666
-0.028863159
-0.038623939
-0.048121663
-0.054208943
-0.055506916
-0.046912417
-0.030679674
-0.01259578
0.0013154295
0.0077162579
0.0079537112
0.0043790088
-0.00083859336
-0.0060952014
-0.010388779
-0.013224408
-0.01453397
-0.014506912
-0.01342188
-0.011590633
-0.0093057489
-0.0068180416
-0.0043249483
-0.0019495005
0.00026546355
0.0023644064
0.0041607518
0.00566167
0.0068812046
0.0078491766
0.0085393163
0.0090552806
-0.089230017
-0.077252337
-0.080400895
-0.080930112
-0.066801654
-0.047968779
-0.036236983
-0.036581
-0.057096071
-0.078658009
-0.091041897
-0.07496123
-0.031872386
0.010019113
0.023009804
0.030634692
0.026281173
0.005015769
-0.00022445542
-0.097541007
-0.10037718
-0.09128278
-0.076248613
-0.052293669
-0.034914356
-0.034148976
-0.043034125
-0.056615296
-0.068944311
-0.072462655
-0.066860437
-0.047129498
-0.022998642
-0.0025792817
0.0086360066
0.011264109
0.0083049032
0.0025693828
-0.0038237781
-0.0094839751
-0.013648065
-0.016051292
-0.016816223
-0.016237828
-0.014653254
-0.012406774
-0.0098088763
-0.0071127772
-0.0044814124
-0.0019794352
0.00045865539
0.002572347
0.0043706596
0.0058586349
0.0070736469
0.0080373162
0.008729092
0.0092458112
-0.10634606
-0.089798846
-0.071795869
-0.068918974
-0.065929299
-0.052010176
-0.035506779
-0.027140767
-0.02993641
-0.051743861
-0.072223407
-0.085183448
-0.069396515
-0.027719216
0.012026892
0.024400129
0.030626197
0.026147524
0.0059506743
0.00075064754
-0.11688906
-0.1135496
-0.098440929
-0.070248405
-0.046064328
-0.041207062
-0.048151237
-0.06213724
-0.080249804
-0.095060174
-0.091098816
-0.070210887
-0.038219698
-0.0092186671
0.0085804995
0.014763268
0.013061463
0.0070718415
-0.00044311429
-0.0076093745
-0.013323725
-0.017094206
-0.018917192
-0.019048709
-0.01786961
-0.015768011
-0.013122828
-0.010253278
-0.0073738943
-0.004574409
-0.0017726697
0.00069270339
0.0028088584
0.0045887301
0.0060673727
0.0072756939
0.0082346928
0.0089272259
0.0094441293
-0.13256762
-0.11351188
-0.088011945
-0.065799263
-0.057404084
-0.051836074
-0.038525986
-0.02379366
-0.018336787
-0.022970611
-0.04545603
-0.067197349
-0.077970595
-0.062956925
-0.023140346
0.013503029
0.025106036
0.030010936
0.025509054
0.0067349765
0.0018418547
-0.13711301
-0.12275283
-0.090670964
-0.059094425
-0.049934299
-0.05452005
-0.067549573
-0.088902274
-0.1116236
-0.12115438
-0.096173153
-0.059421666
-0.020267172
0.0069639151
0.018167852
0.01855939
0.012721803
0.0041819087
-0.0045981493
-0.012083229
-0.017496114
-0.020661545
-0.021773317
-0.021190087
-0.019369027
-0.016762224
-0.013765043
-0.010653441
-0.0075526522
-0.0043565782
-0.0015072763
0.00096183236
0.0030529235
0.0048194667
0.0062861527
0.0074874884
0.0084408327
0.0091335974
0.0096501055
-0.16053205
-0.14678451
-0.11845646
-0.08440234
-0.059102496
-0.046670377
-0.038938821
-0.026445486
-0.013159998
-0.0098169033
-0.016218813
-0.039531028
-0.061268123
-0.070118395
-0.0555087
-0.018311544
0.014676857
0.02516816
0.028852309
0.024395946
0.0074008777
0.0029764827
-0.14861172
-0.11284342
-0.074298318
-0.06009303
-0.062002049
-0.073646717
-0.096028842
-0.1277886
-0.14446222
-0.13035875
-0.084910176
-0.036458866
0.002108214
0.020967007
0.024596011
0.019501281
0.01014776
-0.00029061911
-0.0097544197
-0.017093494
-0.021900138
-0.024297879
-0.024544602
-0.023180878
-0.020724155
-0.017664156
-0.014349179
-0.010948153
-0.0073290425
-0.0040545469
-0.0011992376
0.0012376952
0.0033105767
0.0050607781
0.0065150726
0.0077084909
0.0086555598
0.0093479165
0.0098636438
-0.17492711
-0.18262659
-0.15835841
-0.1211901
-0.079958156
-0.051874504
-0.036863825
-0.027478022
-0.015830432
-0.0037889928
-0.0023682741
-0.0093081088
-0.034193187
-0.054591018
-0.061478379
-0.047313186
-0.013414517
0.015636307
0.02471274
0.027237249
0.02266774
0.0079661451
0.0037654953
-0.13626639
-0.091248418
-0.071482958
-0.070244899
-0.080692744
-0.10283844
-0.14038056
-0.1737563
-0.15936972
-0.12039017
-0.057547799
-0.0063800385
0.02203519
0.030814636
0.027262581
0.017481454
0.0054367802
-0.0061644566
-0.015716568
-0.022489035
-0.026448518
-0.027857764
-0.027150148
-0.024997189
-0.02196347
-0.018489983
-0.01479954
-0.0107281
-0.0069848308
-0.0037010767
-0.00088545031
0.0015282909
0.0035793343
0.0053127177
0.0067537214
0.007938433
0.0088785121
0.0095702332
0.010084429
-0.15968727
-0.20071443
-0.2013634
-0.1672999
-0.12164124
-0.075068001
-0.044673677
-0.028109809
-0.017798429
-0.0072524345
0.0034966633
0.0055187761
-0.0042780242
-0.028361004
-0.047395161
-0.05207861
-0.038734357
-0.0087550007
0.01630559
0.023873267
0.025325546
0.020457448
0.0082028677
0.0041219059
-0.10899507
-0.083550199
-0.079058926
-0.088056122
-0.1103014
-0.15142567
-0.19673152
-0.20224449
-0.14484715
-0.080723726
-0.016318261
0.02074192
0.036443041
0.035762585
0.026088924
0.01263786
-0.0011769207
-0.013187569
-0.022271352
-0.0281319
-0.030988128
-0.031215193
-0.029547326
-0.026667986
-0.023103807
-0.019147468
-0.014597629
-0.010336424
-0.0065792738
-0.0033428249
-0.00055545465
0.0018306323
0.0038593482
0.0055747748
0.007001625
0.0081769316
0.0091100456
0.0098001128
0.010312261
-0.12589765
-0.18184965
-0.22258677
-0.21586526
-0.17302153
-0.12022248
-0.069929329
-0.037934374
-0.020612822
-0.010314035
-0.00067627957
0.010846668
0.010380291
0.00076792679
-0.022188823
-0.039517022
-0.042291203
-0.030209449
-0.0043965121
0.016593862
0.022745324
0.023227909
0.018261231
0.0080138151
0.0041896572
-0.095434982
-0.088025264
-0.095181961
-0.11756652
-0.16226348
-0.21554676
-0.2368698
-0.19394082
-0.10028466
-0.025678072
0.020079416
0.040495184
0.044390713
0.035768296
0.021266355
0.0052760213
-0.0093702018
-0.021076982
-0.029209354
-0.033840513
-0.035330344
-0.034344257
-0.031767837
-0.028214265
-0.024034785
-0.018985481
-0.014153679
-0.0098723927
-0.006169613
-0.0029662798
-0.00021286834
0.0021450496
0.004149939
0.0058465073
0.0072584182
0.0084248946
0.0093492425
0.010037178
0.01054688
-0.1060072
-0.14045935
-0.19917174
-0.23830655
-0.22486323
-0.17507276
-0.11717994
-0.064948198
-0.032070227
-0.014622298
-0.0043591631
0.0066099435
0.015316032
0.015208257
0.005611661
-0.015919969
-0.031050807
-0.032347913
-0.022191297
-0.00034863781
0.01651544
0.021367733
0.021082283
0.016220295
0.0075904387
0.0039992484
-0.096210136
-0.10182078
-0.12371415
-0.17174327
-0.23093481
-0.267083
-0.23731832
-0.14337646
-0.04326334
0.020943189
0.045762113
0.052094547
0.046057251
0.031152028
0.013177209
-0.0041915954
-0.018779992
-0.029546275
-0.036308403
-0.039390902
-0.039397668
-0.037266375
-0.033839377
-0.029505354
-0.023944221
-0.018485686
-0.013625274
-0.0094041334
-0.0057386825
-0.0025759206
0.00014288258
0.0024707402
0.0044506096
0.006127799
0.0075257009
0.0086810013
0.0095955827
0.010280971
0.010788032
-0.10274424
-0.11388986
-0.15054686
-0.20889395
-0.24526109
-0.22761864
-0.17344494
-0.11304493
-0.060458459
-0.027250197
-0.0097042688
0.0025231791
0.011775561
0.01949251
0.019809864
0.0099195534
-0.0096873395
-0.022428887
-0.02248796
-0.014818788
0.0030969562
0.016161376
0.019819786
0.018995182
0.014312305
0.0070159871
0.0036369733
-0.10685161
-0.1288529
-0.1783895
-0.24117203
-0.29146527
-0.27985283
-0.18967569
-0.078799713
0.0052537368
0.052959998
0.060782884
0.056075362
0.041943321
0.022392971
0.0023535885
-0.015308007
-0.029034324
-0.038301887
-0.043308846
-0.044628226
-0.043201219
-0.040013107
-0.035606645
-0.029530373
-0.023386826
-0.017887922
-0.013090969
-0.00891027
-0.0052921012
-0.002170826
0.00051082939
0.0028071402
0.0047615815
0.0064210719
0.0078016538
0.00894448
0.0098484538
0.010531114
0.011035448
-0.1097385
-0.10653143
-0.11847686
-0.15456837
-0.20937577
-0.24203346
-0.22379231
-0.16864013
-0.10834064
-0.056036787
-0.023198988
-0.00379584
0.0079320352
0.016650817
0.022925081
0.023512448
0.013660277
-0.0037784386
-0.013966558
-0.013776056
-0.0083917182
0.005816934
0.015604877
0.018216267
0.016980104
0.01255825
0.0063766972
0.0032321501
-0.13224651
-0.17959107
-0.24489333
-0.30759776
-0.31621479
-0.23674325
-0.12034425
-0.023258377
0.040693401
0.071493323
0.066229447
0.053027331
0.03257958
0.010151327
-0.010639618
-0.027599659
-0.0397511
-0.047028661
-0.049979026
-0.049542293
-0.046803453
-0.042406644
-0.03580435
-0.028916016
-0.022715969
-0.017279975
-0.012524832
-0.0083979492
-0.0048285155
-0.0017520461
0.00089038548
0.0031547914
0.0050865075
0.0067236554
0.008085167
0.0092144831
0.010107439
0.010787194
0.011288849
-0.13241569
-0.10999088
-0.10725781
-0.11954822
-0.15278501
-0.20058557
-0.22941245
-0.21351536
-0.16114196
-0.10207107