/*--------------------------------*- C++ -*----------------------------------*\
  =========                 |
  \\      /  F ield         | OpenFOAM: The Open Source CFD Toolbox
   \\    /   O peration     | Website:  https://openfoam.org
    \\  /    A nd           | Version:  8
     \\/     M anipulation  |
\*---------------------------------------------------------------------------*/
FoamFile
{
    version     2.0;
    format      ascii;
    class       surfaceScalarField;
    location    "200.966377299857271";
    object      phi;
}
// * * * * * * * * * * * * * * * * * * * * * * * * * * * * * * * * * * * * * //

dimensions      [0 3 -1 0 0 0 0];

internalField   nonuniform List<scalar> 
18180
(
-0.001546172
-1.3870635
-0.0030228799
-1.2972583
-0.0014835987
-1.3855799
-0.0044288076
-1.2134228
-0.0028906542
-1.2958513
-0.0014198424
-1.3841601
-0.0057832684
-1.1350944
-0.0042179657
-1.2120955
-0.002764788
-1.2945063
-0.0013390351
-1.3828211
-0.0070817027
-1.0618718
-0.0054619441
-1.1338504
-0.0040416118
-1.2108186
-0.0026113477
-1.293234
-0.0012509797
-1.3815701
-0.008304793
-0.99338987
-0.0065941835
-1.0607395
-0.0052497318
-1.1326423
-0.0038281164
-1.2096019
-0.0024426253
-1.2920424
-0.0011500484
-1.38042
-0.0094217427
-0.92930852
-0.0075800644
-0.99240399
-0.0063663168
-1.059623
-0.005000083
-1.1314703
-0.0035906895
-1.2084538
-0.0022462516
-1.2909462
-0.0010432637
-1.3793768
-0.010423804
-0.8693266
-0.0083660338
-0.92852255
-0.0073636861
-0.99140662
-0.0061246564
-1.0584984
-0.0047155793
-1.1303454
-0.0033045612
-1.2073955
-0.00203579
-1.2899536
-0.00093479594
-1.378442
-0.011272461
-0.81314805
-0.0089135485
-0.86877908
-0.008204394
-0.92768184
-0.0071864171
-0.99034486
-0.0058346395
-1.0573793
-0.0043497746
-1.1293002
-0.0029917322
-1.2064396
-0.0018197421
-1.2890687
-0.00083105917
-1.3776109
-0.011913113
-0.76051881
-0.0091077668
-0.81295384
-0.0088246568
-0.86815882
-0.0081643378
-0.92670392
-0.0069625389
-0.98921696
-0.0054174059
-1.0563117
-0.0039326012
-1.1283594
-0.0026650839
-1.2055942
-0.0016123335
-1.2882874
-0.00073637969
-1.3768745
-0.012214467
-0.71121503
-0.0088047368
-0.76082184
-0.0091824437
-0.81259605
-0.0090177074
-0.86730545
-0.0081148747
-0.92555159
-0.0065530964
-0.98808127
-0.0048922008
-1.0553521
-0.0034852032
-1.1275392
-0.0023496191
-1.2048569
-0.0014241701
-1.2875996
-0.00065440974
-1.3762201
-0.012099773
-0.66495274
-0.0077785424
-0.71224122
-0.0092529997
-0.76075128
-0.0097631807
-0.81185058
-0.0093435459
-0.86607678
-0.0078095782
-0.9242951
-0.0059194045
-0.98705407
-0.0043006308
-1.0545367
-0.0030490615
-1.1268398
-0.0020647333
-1.2042164
-0.0012625279
-1.2869915
-0.00058580077
-1.3756343
-0.011329294
-0.62153192
-0.0058197734
-0.66691151
-0.0089058323
-0.71258839
-0.010458498
-0.76005596
-0.010738343
-0.81045578
-0.0092609819
-0.86462538
-0.0070728259
-0.92314168
-0.005142473
-0.98621222
-0.0037155585
-1.0538702
-0.0026571521
-1.1262474
-0.0018226252
-1.2036563
-0.0011287888
-1.2864485
-0.0005284187
-1.3751059
-0.0098255665
-0.58075442
-0.0026539707
-0.62469772
-0.0079138536
-0.66790349
-0.011147642
-0.71189924
-0.012347947
-0.75844636
-0.010987348
-0.80872941
-0.0084137624
-0.86328444
-0.0060449873
-0.92223917
-0.0043546798
-0.9855731
-0.0031939646
-1.0533334
-0.0023298376
-1.1257402
-0.0016264914
-1.2031586
-0.0010185322
-1.2859584
-0.00047920815
-1.3746267
-0.0075424253
-0.54254962
0.0019515255
-0.58535992
-0.0061402984
-0.62647128
-0.011814291
-0.66723684
-0.01431407
-0.70993312
-0.013083609
-0.7563501
-0.010002275
-0.8071409
-0.007035443
-0.86229398
-0.0049693005
-0.92162455
-0.0036605281
-0.98510654
-0.0027699432
-1.0528933
-0.0020732805
-1.1252934
-0.0014691849
-1.2027079
-0.00092491396
-1.2855127
-0.00043504013
-1.3741917
-0.0043754187
-0.5067327
0.0081714734
-0.54876957
-0.0033299489
-0.58817027
-0.012417155
-0.62586841
-0.016829947
-0.66472096
-0.015759616
-0.70725712
-0.011945434
-0.75440694
-0.0081404501
-0.80603589
-0.0055506418
-0.86171264
-0.0040334736
-0.9212516
-0.0031183375
-0.98475814
-0.0024541299
-1.0525124
-0.0018769002
-1.1248857
-0.0013384582
-1.2022944
-0.00084088961
-1.2851068
-0.00039343202
-1.3737982
-0.00024135288
-0.47298509
0.016083552
-0.51464478
0.00070784643
-0.55280737
-0.012908523
-0.5876789
-0.020080205
-0.62261815
-0.019252494
-0.66122808
-0.014395327
-0.70480722
-0.0094137107
-0.75313368
-0.0060768378
-0.8055097
-0.0042770065
-0.86146911
-0.0033395119
-0.92103043
-0.0027442429
-0.98446803
-0.0022313713
-1.0521579
-0.0017199548
-1.1245042
-0.0012215564
-1.2019137
-0.0007608904
-1.2847394
-0.00035290698
-1.3734453
0.0048763283
-0.44116472
0.025794514
-0.48269605
0.0059942261
-0.51993116
-0.013244434
-0.55247145
-0.024309941
-0.58344916
-0.023824013
-0.61804663
-0.017529122
-0.65809429
-0.01090646
-0.70331447
-0.0065278072
-0.75268271
-0.0043290315
-0.80545767
-0.0033851935
-0.86142343
-0.0029114589
-0.92086321
-0.002514753
-0.98418465
-0.0020666938
-1.0518112
-0.0015807822
-1.1241449
-0.0011083967
-1.2015662
-0.00068165291
-1.2844106
-0.00031300531
-1.3731323
0.010914429
-0.41110462
0.037308345
-0.45267855
0.012661328
-0.48936315
-0.013464961
-0.51971063
-0.029793603
-0.54698779
-0.029793524
-0.57747965
-0.021548714
-0.61402704
-0.01268148
-0.65631927
-0.0068697541
-0.70297253
-0.0041094251
-0.75290232
-0.0031708585
-0.80567201
-0.0029061972
-0.86142869
-0.0027065831
-0.92067138
-0.0023706666
-0.98388068
-0.0019232481
-1.0514687
-0.0014424363
-1.1238109
-0.00099318936
-1.2012547
-0.00060223924
-1.2841214
-0.00027410854
-1.3728582
0.017796297
-0.382649
0.050426522
-0.4242228
0.020821119
-0.46083834
-0.013608782
-0.48921933
-0.036675883
-0.51282835
-0.037494235
-0.53928708
-0.026680768
-0.5723476
-0.014812929
-0.61189559
-0.007056534
-0.65613249
-0.0035197649
-0.70356219
-0.0025826547
-0.75349052
-0.0026488286
-0.80592938
-0.0027646332
-0.86137064
-0.0026188712
-0.92042318
-0.0022526772
-0.98355125
-0.0017741154
-1.051137
-0.0012954278
-1.1235087
-0.00087436386
-1.2009825
-0.00052363871
-1.2838719
-0.00023716325
-1.372621
0.025278531
-0.35544767
0.064859904
-0.39708238
0.030516036
-0.43391772
-0.01372023
-0.46072689
-0.045139328
-0.48075589
-0.047051665
-0.50327092
-0.033176699
-0.53279115
-0.017370648
-0.56978988
-0.0070354127
-0.61191671
-0.0024416249
-0.65721063
-0.0014834477
-0.70466139
-0.0020221746
-0.75411717
-0.0026464504
-0.80604756
-0.002800722
-0.86118879
-0.0025724252
-0.92010343
-0.0021191384
-0.98320623
-0.0016039074
-1.0508286
-0.001136915
-1.1232461
-0.00075382351
-1.2007524
-0.00044810478
-1.2836609
-0.00020336335
-1.3724177
0.033024655
-0.32922282
0.079949633
-0.3705374
0.041782007
-0.40834835
-0.013630362
-0.43400758
-0.055319785
-0.45054644
-0.058596998
-0.46921055
-0.041171661
-0.49527596
-0.020430237
-0.52973156
-0.0067327075
-0.57009258
-0.00074248284
-0.61361586
0.00027725381
-0.65897133
-0.00088430473
-0.70579926
-0.0022564338
-0.75450719
-0.0029204461
-0.80592783
-0.0029059933
-0.86085522
-0.0025011579
-0.91972141
-0.0019420069
-0.98286813
-0.001407338
-1.0505581
-0.00096975842
-1.1230302
-0.00063575545
-1.2005647
-0.00037839653
-1.2834859
-0.00017390137
-1.3722438
0.040888003
-0.30415471
0.095075023
-0.34434821
0.05391351
-0.38266891
-0.012688482
-0.40929023
-0.066963116
-0.42236425
-0.072237342
-0.43690609
-0.05074589
-0.45963632
-0.024105408
-0.49160079
-0.0060434375
-0.53042083
0.0017320961
-0.57256716
0.0028776425
-0.61621625
0.0009156406
-0.66077128
-0.0014893501
-0.70656635
-0.0029372254
-0.75449041
-0.0032758627
-0.80555796
-0.0029593515
-0.86039703
-0.0023462546
-0.91931716
-0.0017111555
-0.98256431
-0.0011882685
-1.0503396
-0.00080121401
-1.1228647
-0.00052515398
-1.2004179
-0.00031716266
-1.2833426
-0.00014971044
-1.3720941
0.048699995
-0.28029515
0.11002261
-0.3191023
0.066721495
-0.35715619
-0.0096705077
-0.38568688
-0.079365578
-0.39688777
-0.087921248
-0.40668035
-0.061981537
-0.42567045
-0.028398193
-0.45534354
-0.0049413295
-0.4927029
0.0051705936
-0.53385933
0.0065092736
-0.57619879
0.0035579449
-0.61885855
-0.00022670134
-0.66203393
-0.0027983642
-0.70670521
-0.0037128744
-0.7540534
-0.0035387946
-0.80497852
-0.002861676
-0.85988161
-0.0020882741
-0.91894004
-0.0014332944
-0.98231928
-0.00095782225
-1.050183
-0.00063983469
-1.12275
-0.00042669113
-1.2003084
-0.00026644952
-1.2832259
-0.00013127255
-1.3719628
0.056282114
-0.25769762
0.12448333
-0.29475587
0.079945407
-0.33232621
-0.0057963997
-0.3610303
-0.091157956
-0.3738945
-0.10560114
-0.37920788
-0.075157083
-0.3935048
-0.033254814
-0.42081382
-0.0033571241
-0.45692775
0.0097469496
-0.49727925
0.011388541
-0.5387386
0.0072517905
-0.57989264
0.0016784574
-0.62076371
-0.0024452771
-0.66238701
-0.0042429689
-0.70617511
-0.0043161192
-0.75327607
-0.0035517197
-0.80428848
-0.0025853277
-0.85938455
-0.0017406524
-0.91863269
-0.0011259776
-0.98215113
-0.00073070562
-1.0500922
-0.00049393085
-1.1226828
-0.00034405052
-1.2002308
-0.00022738795
-1.2831298
-0.00011861318
-1.3718442
0.063497015
-0.23646292
0.13818853
-0.27140282
0.093031345
-0.30784181
-0.002751881
-0.33537073
-0.10253988
-0.34964838
-0.1253293
-0.35416634
-0.09069595
-0.36366901
-0.038888681
-0.38787093
-0.0010896338
-0.42308131
0.0155271
-0.4627079
0.017760178
-0.50365089
0.012226761
-0.54371357
0.0044074152
-0.5826216
-0.0018036837
-0.6214053
-0.0048867076
-0.66174327
-0.0053821496
-0.70510908
-0.0045179773
-0.75230982
-0.0032702997
-0.80360351
-0.0021550574
-0.85897015
-0.0013341958
-0.91842447
-0.00081239439
-0.98206944
-0.00052214218
-1.0500639
-0.00037010033
-1.1226567
-0.00027960174
-1.2001786
-0.00020016976
-1.2830482
-0.00011139001
-1.3717328
0.070246578
-0.21666873
0.15097201
-0.2492464
0.10550744
-0.28387891
-0.00045886865
-0.31013482
-0.11423838
-0.32367223
-0.14497277
-0.33000491
-0.10842587
-0.33643642
-0.045824107
-0.35673358
0.00198545
-0.39094602
0.022602557
-0.43015677
0.025785119
-0.47073284
0.018725276
-0.5101494
0.0081754689
-0.54748162
-0.00077904186
-0.58364624
-0.0056724825
-0.62061953
-0.0068372143
-0.66028821
-0.0058852744
-0.70374179
-0.0042473579
-0.75133276
-0.0027369651
-0.8030216
-0.0016204064
-0.85868394
-0.00090616063
-0.9183307
-0.00051841982
-0.98207316
-0.00034344187
-1.0500906
-0.00027261935
-1.1226637
-0.00023412583
-1.2001446
-0.00018429226
-1.2829753
-0.00010897599
-1.3716238
0.076471814
-0.19835955
0.16275089
-0.22844761
0.11709016
-0.26082913
0.001459142
-0.28579692
-0.1260849
-0.2982883
-0.16284329
-0.3058017
-0.12689595
-0.31153483
-0.054432639
-0.32782789
0.0057026868
-0.36045082
0.031188184
-0.39953165
0.035469676
-0.43984133
0.027019922
-0.47902748
0.013209314
-0.51518325
0.00073138027
-0.54899204
-0.0066316647
-0.58268706
-0.0088070408
-0.6186497
-0.0078002461
-0.65837324
-0.0056454276
-0.70234372
-0.0035720939
-0.75049763
-0.0020299528
-0.80261205
-0.0010387756
-0.85855132
-0.00049597696
-0.91835314
-0.00026472622
-0.98215188
-0.00020191913
-1.0501613
-0.00020343969
-1.1226944
-0.00020692963
-1.200122
-0.000178333
-1.282906
-0.00011056825
-1.3715133
0.082151029
-0.18153346
0.1735004
-0.20910907
0.12762502
-0.23898246
0.0029993554
-0.26236934
-0.13774055
-0.27414128
-0.17927125
-0.28186034
-0.14460265
-0.288095
-0.0646568
-0.30131067
0.0095462943
-0.3316715
0.041363923
-0.37062656
0.046915438
-0.41097741
0.037317546
-0.45013895
0.019794981
-0.48561315
0.0028941551
-0.51734602
-0.0078007697
-0.54782294
-0.011448667
-0.58004543
-0.010444255
-0.61600569
-0.0076153534
-0.65640331
-0.004768066
-0.70114775
-0.0026182152
-0.74990937
-0.0012360119
-0.80241482
-0.00046748938
-0.85857981
-0.00013746733
-0.9184804
-6.2443672e-05
-0.98229135
-0.00010102739
-1.0502637
-0.00016241857
-1.1227389
-0.0001963834
-1.200104
-0.00018025065
-1.2828363
-0.00011584581
-1.3713974
0.08729446
-0.16617013
0.18324152
-0.19127457
0.13707784
-0.21856189
0.0042189736
-0.24020208
-0.14899624
-0.25111365
-0.19474405
-0.25866848
-0.16109886
-0.26536413
-0.075848373
-0.27690342
0.012965845
-0.30473022
0.053001801
-0.34330938
0.060218552
-0.38392967
0.049676818
-0.42333668
0.028324338
-0.45866831
0.0058975656
-0.48861656
-0.0092138929
-0.5159329
-0.014948601
-0.544323
-0.014038531
-0.57645116
-0.010336533
-0.61328451
-0.0064486948
-0.65472268
-0.0034569313
-0.70030903
-0.0015229727
-0.74962241
-0.00043795331
-0.80244435
4.1238276e-05
-0.85875852
0.00015220843
-0.91869506
8.39691e-05
-0.98247635
-4.0398194e-05
-1.0503857
-0.00014725549
-1.1227881
-0.00019979735
-1.2000844
-0.00019203375
-1.2827601
-0.00012419583
-1.3712732
0.090435061
-0.17775873
0.19198298
-0.17491159
0.14546619
-0.19966292
0.0051469681
-0.21948988
-0.15963696
-0.22956136
-0.20921173
-0.23664597
-0.17632753
-0.24343981
-0.086992507
-0.25422
0.015732843
-0.27967042
0.065819351
-0.31754777
0.075352954
-0.35844378
0.064125794
-0.39837865
0.039007367
-0.43401971
0.010012513
-0.46278325
-0.010884199
-0.48694626
-0.019541056
-0.51134045
-0.018845258
-0.53951628
-0.014020061
-0.57276763
-0.0087537412
-0.61097947
-0.0046284102
-0.6535512
-0.0019322205
-0.69989978
-0.00040864174
-0.74965172
0.00028910722
-0.80269222
0.00046347416
-0.85906978
0.00036774867
-0.91897884
0.00017549268
-0.98269224
-1.6563399e-05
-1.0505164
-0.00015324449
-1.1228346
-0.00021889947
-1.2000575
-0.00021017075
-1.2826741
-0.00013471525
-1.3711385
0.093864498
-0.17395623
0.19826021
-0.18403596
0.15285422
-0.18229962
0.0058191282
-0.20033508
-0.16953293
-0.20959391
-0.22266424
-0.21610885
-0.1902115
-0.222762
-0.09733079
-0.23310153
0.017996017
-0.25648317
0.079487528
-0.2933386
0.092218847
-0.33441367
0.080647575
-0.37496556
0.051834655
-0.41120594
0.015456816
-0.43946401
-0.012864534
-0.46080292
-0.025496591
-0.48099072
-0.025162987
-0.50502272
-0.01889786
-0.53463848
-0.01183756
-0.56968381
-0.0062187079
-0.60938917
-0.0025006613
-0.65298276
-0.00038054473
-0.69992788
0.00061891192
-0.74998152
0.00089624897
-0.803125
0.00078099364
-0.85948303
0.00050777359
-0.91931112
0.00021558168
-0.98292438
-2.3341505e-05
-1.0506463
-0.00017876436
-1.1228747
-0.00024852114
-1.2000192
-0.00023246497
-1.2825764
-0.00014668505
-1.3709918
0.097481122
-0.17020161
0.20449878
-0.1801948
0.15955837
-0.19074012
0.0063474558
-0.18282795
-0.17858513
-0.19128288
-0.23505155
-0.1972066
-0.20275637
-0.20356398
-0.10655889
-0.21353391
0.020021343
-0.23512685
0.093619141
-0.27061479
0.11054998
-0.31166973
0.09901862
-0.35278471
0.066675798
-0.3898067
0.022296066
-0.41804519
-0.015257574
-0.43707097
-0.033136005
-0.45316351
-0.033357253
-0.47279645
-0.025230245
-0.49869033
-0.015858205
-0.53061783
-0.0083141005
-0.56758842
-0.0032614497
-0.60862838
-0.00034984708
-0.65301346
0.001051198
-0.70036017
0.001477918
-0.75056319
0.0013516545
-0.80369566
0.00098921115
-0.85996446
0.00057566025
-0.91967119
0.00021143073
-0.98315916
-5.6675209e-05
-1.0507684
-0.00022049717
-1.1229028
-0.00028454371
-1.1999671
-0.00025800009
-1.2824651
-0.00015944166
-1.3708324
0.10118951
-0.16658796
0.21055332
-0.17625615
0.1662139
-0.18685032
0.0093869521
-0.19377961
-0.18675514
-0.17465794
-0.24634438
-0.17999006
-0.21398653
-0.18597644
-0.11459299
-0.19552987
0.022005106
-0.21551767
0.10783877
-0.24934648
0.12977599
-0.2898408
0.11864952
-0.33130063
0.082898984
-0.3690079
0.030148967
-0.3976596
-0.018318137
-0.41498462
-0.042794178
-0.4274128
-0.043843649
-0.44267711
-0.033330043
-0.46469666
-0.020982907
-0.49356563
-0.010993692
-0.52793824
-0.0042395827
-0.56661028
-0.00030424598
-0.60867398
0.0016197539
-0.65358202
0.0022438541
-0.7011261
0.0021132546
-0.75132479
0.0016451616
-0.80435161
0.0010897505
-0.86047855
0.00057699655
-0.92003676
0.00016929167
-0.98338512
-0.00011271029
-1.0508762
-0.00027275753
-1.1229146
-0.00032578305
-1.1998993
-0.00028499487
-1.2823395
-0.00017241496
-1.37066
0.1049052
-0.16320939
0.21628178
-0.17231642
0.17265166
-0.18269392
0.012835379
-0.19029875
-0.19151915
-0.1890156
-0.25659079
-0.16441152
-0.22394838
-0.1700282
-0.12148953
-0.17907991
0.024040066
-0.19756483
0.12186981
-0.22954872
0.14931435
-0.26888483
0.13855421
-0.30974549
0.099474751
-0.3478764
0.038354827
-0.37721376
-0.022881619
-0.39309612
-0.054996447
-0.40278236
-0.056939189
-0.41431726
-0.043551711
-0.43245544
-0.027377509
-0.45830205
-0.01432017
-0.49023915
-0.0054463056
-0.52673152
-0.00021728913
-0.56669724
0.0023682385
-0.60942247
0.0032430883
-0.65458125
0.0031135529
-0.7021264
0.0025155746
-0.75219521
0.0017841961
-0.80504605
0.0010936983
-0.86099526
0.0005219149
-0.92038938
9.5719506e-05
-0.98359355
-0.00018491993
-1.050964
-0.00033323514
-1.1229071
-0.00036935099
-1.199815
-0.00031240045
-1.2821995
-0.00018512936
-1.3704748
0.10855971
-0.16015518
0.22156118
-0.16848879
0.17871074
-0.17837549
0.016471384
-0.18632993
-0.19536541
-0.18645249
-0.26578517
-0.17982122
-0.23276915
-0.15559076
-0.12738591
-0.16413182
0.026139646
-0.18117949
0.13549187
-0.21118689
0.1686466
-0.24888097
0.1582086
-0.28853922
0.11571904
-0.32598978
0.046675245
-0.35619682
-0.029331289
-0.37076409
-0.070394879
-0.37769769
-0.072895148
-0.3868264
-0.056112088
-0.40175688
-0.035224586
-0.42460837
-0.018325198
-0.45429703
-0.0068690294
-0.48881643
-5.3677766e-05
-0.52689513
0.0033536726
-0.56768267
0.0045395456
-0.61071892
0.0044132022
-0.6558809
0.0036544851
-0.70326531
0.0027026302
-0.75311364
0.0017898156
-0.80574217
0.0010193189
-0.86149266
0.00042260318
-0.92071627
-1.8674921e-06
-0.98377661
-0.0002682197
-1.0510291
-0.0003978837
-1.1228786
-0.00041377811
-1.1997136
-0.0003394014
-1.2820452
-0.00019719455
-1.3702776
0.11209924
-0.15752108
0.22629362
-0.16488762
0.18425472
-0.17403277
0.020165829
-0.18206994
-0.19836633
-0.18332901
-0.27407463
-0.17816303
-0.24385575
-0.16873462
-0.13245331
-0.15052335
0.028264335
-0.16625651
0.14853518
-0.1942228
0.18735463
-0.22989491
0.17731283
-0.2679852
0.1314711
-0.30429128
0.055180023
-0.33449456
-0.036210235
-0.34931787
-0.088817309
-0.35234166
-0.091682053
-0.35891078
-0.070938581
-0.3719999
-0.044606183
-0.39237529
-0.023010754
-0.41992281
-0.0084632663
-0.45270279
0.00023771324
-0.48910782
0.0046436178
-0.52818508
0.0062076301
-0.56935076
0.0060852197
-0.61239094
0.0051264324
-0.65735285
0.0038971732
-0.70445985
0.0027053908
-0.75402922
0.0016876359
-0.80641049
0.000884353
-0.86195441
0.00029054067
-0.92100868
-0.00011517794
-0.98392965
-0.00035823319
-1.0510687
-0.00046314851
-1.1228292
-0.00045792851
-1.1995951
-0.00036511557
-1.2818773
-0.00020835316
-1.3700693
0.11547284
-0.15538649
0.2303984
-0.16162586
0.18917091
-0.16980381
0.023791934
-0.17765887
-0.20051614
-0.17992013
-0.28135776
-0.17604588
-0.25389974
-0.16811904
-0.14440745
-0.15678048
0.030492416
-0.15275143
0.1608567
-0.17857803
0.20514969
-0.21201786
0.19556452
-0.2481466
0.14669134
-0.28320545
0.063366253
-0.31247751
-0.042117228
-0.32858756
-0.10872383
-0.32941135
-0.11287987
-0.33114384
-0.087496572
-0.34235279
-0.055299882
-0.3613062
-0.028373183
-0.38701286
-0.010138434
-0.41824764
0.00073526133
-0.45320034
0.0063148071
-0.49077901
0.0083334615
-0.53031091
0.0082132499
-0.57147879
0.0070065465
-0.61427106
0.0054292785
-0.65888495
0.0038863318
-0.70564079
0.0025596779
-0.75490126
0.0015025405
-0.80702868
0.00070537156
-0.86236924
0.00013671257
-0.92126057
-0.00023769259
-0.98405019
-0.00044981473
-1.051082
-0.00052802804
-1.1227591
-0.00049985359
-1.1994603
-0.00038894101
-1.2816967
-0.00021847528
-1.3698508
0.1186246
-0.15382699
0.2338237
-0.15881179
0.19336387
-0.16581881
0.027239499
-0.17325138
-0.20183649
-0.17633852
-0.28758643
-0.17369146
-0.26281944
-0.16712618
-0.15538528
-0.15714121
0.022429245
-0.14871731
0.17249014
-0.16438487
0.2218481
-0.19527644
0.21265572
-0.22910905
0.16117213
-0.26262739
0.070888931
-0.29072813
-0.04759244
-0.3070023
-0.12824179
-0.30906961
-0.13563113
-0.3066601
-0.10547402
-0.31316638
-0.066656422
-0.33099625
-0.034196332
-0.35548306
-0.011819064
-0.38533223
0.001552242
-0.41906462
0.0084566612
-0.45534219
0.01100903
-0.49345458
0.010889028
-0.53298669
0.009379608
-0.57385185
0.0073698479
-0.61621163
0.0053861617
-0.66038478
0.0036729923
-0.70675411
0.0023020421
-0.75570076
0.0012587473
-0.80758205
0.00049766076
-0.86273019
-2.9311535e-05
-0.92146895
-0.00036358828
-0.98413642
-0.00054046718
-1.0510696
-0.00059013698
-1.1226688
-0.00053888075
-1.1993104
-0.00041080849
-1.2815044
-0.00022743656
-1.3696234
-0.15288961
0.12149341
0.23653445
-0.15653774
0.19676345
-0.16221137
0.030425566
-0.16900488
-0.20235541
-0.17273246
-0.29271213
-0.17121282
-0.27058801
-0.1659229
-0.16531076
-0.1572007
0.014768622
-0.14948059
0.1748163
-0.15104346
0.23730945
-0.17984623
0.22847256
-0.21109328
0.17469658
-0.24263351
0.07772783
-0.26946629
-0.05318001
-0.28514056
-0.14634995
-0.28889413
-0.15834561
-0.28635513
-0.12508809
-0.28704603
-0.07844155
-0.30138125
-0.039960326
-0.32523226
-0.013362202
-0.35393992
0.0028172743
-0.38659726
0.011168809
-0.42177677
0.01432639
-0.45865955
0.014208334
-0.49677388
0.012336792
-0.53594387
0.0097983044
-0.57628031
0.0072662768
-0.61809174
0.0050700174
-0.66178181
0.003310233
-0.7077623
0.0019675594
-0.75640957
0.00097809894
-0.80806249
0.00027455699
-0.86303406
-0.00019934225
-0.92163319
-0.00048821445
-0.98418867
-0.00062788568
-1.0510319
-0.00064799974
-1.1225597
-0.00057481538
-1.1991464
-0.00043028223
-1.2813016
-0.00023509219
-1.3693883
-0.15490074
0.23854557
-0.15258184
0.12397109
0.19931687
-0.15909116
0.033286768
-0.16507257
-0.2021004
-0.16925989
-0.29669391
-0.16875067
-0.27717389
-0.16462694
-0.1741126
-0.15712106
0.0076556841
-0.15008776
0.17722821
-0.1518925
0.24696825
-0.16070226
0.24273296
-0.19410663
0.18704435
-0.22344105
0.083942086
-0.24884777
-0.058720333
-0.26392596
-0.16302167
-0.26846884
-0.17947092
-0.26776882
-0.14574812
-0.2656951
-0.091787362
-0.27370022
-0.045264693
-0.29607689
-0.014493689
-0.32410077
0.0046240263
-0.35574667
0.014576373
-0.39000482
0.018374046
-0.42582443
0.018263237
-0.46271445
0.015971756
-0.50040885
0.012800053
-0.53894562
0.0095952861
-0.57860932
0.0067985707
-0.6198203
0.0045565966
-0.66302817
0.0028484975
-0.70864324
0.0015872973
-0.75701877
0.00067917209
-0.80846711
4.6938444e-05
-0.86328034
-0.00036754543
-0.92175386
-0.00060825573
-0.9842083
-0.00070991488
-1.0509699
-0.00070115099
-1.1224334
-0.00060673368
-1.1989699
-0.00044707224
-1.2810896
-0.0002415595
-1.3691467
-0.1565821
0.20099823
-0.15382277
0.23978649
-0.15302209
0.12614467
0.035779256
-0.16158364
-0.20109947
-0.1660735
-0.29950827
-0.16644553
-0.28256158
-0.16336298
-0.18172268
-0.15701686
0.0011952797
-0.15066065
0.17968445
-0.15254401
0.25672205
-0.1616463
0.25509127
-0.17306057
0.19800402
-0.2050663
0.089359705
-0.22885867
-0.064103312
-0.24346479
-0.17853999
-0.24840764
-0.19869723
-0.24924253
-0.1662319
-0.24728504
-0.10776108
-0.24972138
-0.050762838
-0.26820208
-0.014817716
-0.29575286
0.0070657554
-0.3265425
0.018778976
-0.35994927
0.02323401
-0.39486479
0.023134966
-0.43069615
0.020374099
-0.4671168
0.016463293
-0.50407209
0.012447486
-0.54179782
0.0089119162
-0.58072266
0.0060728901
-0.62133659
0.0039174182
-0.66409709
0.0023317665
-0.70938771
0.0011870591
-0.75752666
0.00037672499
-0.80879689
-0.00017693132
-0.86347096
-0.00052925627
-0.92183286
-0.00072129583
-0.98419692
-0.00078547659
-1.0508856
-0.00074881721
-1.1222913
-0.00063446929
-1.1987825
-0.00046137357
-1.2808698
-0.00024685481
-1.3688999
-0.15863478
0.037831935
-0.15465732
0.20183278
-0.15374184
0.24050624
-0.15414956
0.12792385
-0.19938963
-0.16329349
-0.30115317
-0.1644286
-0.28674589
-0.16226122
-0.1880919
-0.15699376
-0.0044784837
-0.1513431
0.18221082
-0.15318702
0.26633081
-0.16215277
0.267182
-0.17373703
0.2129591
-0.18801565
0.094120997
-0.20982759
-0.069184907
-0.22377707
-0.19306899
-0.22893578
-0.21632253
-0.23078234
-0.18555348
-0.22992096
-0.12547819
-0.22956793
-0.058073982
-0.24241023
-0.014210465
-0.26880933
0.010345732
-0.29903284
0.023806817
-0.33157034
0.028991143
-0.36570641
0.028886064
-0.40061589
0.025622116
-0.43594417
0.020874253
-0.47152776
0.015901419
-0.50752602
0.011468283
-0.54435418
0.0078937792
-0.58254355
0.0051892255
-0.6226084
0.0032144336
-0.66497976
0.0017959221
-0.70999657
0.000786943
-0.75793688
8.1773373e-05
-0.8090556
-0.00039110276
-0.86360911
-0.00068128262
-0.92187288
-0.00082564116
-0.98415675
-0.00085379694
-1.0507806
-0.00079076759
-1.122135
-0.00065809606
-1.1985858
-0.00047300162
-1.2806436
-0.00025089902
-1.368649
-0.16099203
-0.19703237
-0.15643813
0.039612738
-0.15376093
0.20185187
-0.15433914
0.24069581
-0.15595913
0.12925189
-0.30165846
-0.1627882
-0.2897356
-0.16143888
-0.19321814
-0.15713498
-0.0092315361
-0.15224071
0.1848454
-0.15397768
0.27562541
-0.16248162
0.27873727
-0.17370804
0.22721665
-0.18799458
0.11135977
-0.20525442
-0.073557888
-0.20545461
-0.20648482
-0.21036124
-0.23241728
-0.21284104
-0.20327454
-0.21306127
-0.14321196
-0.21218719
-0.067967142
-0.21967477
-0.013288987
-0.24333171
0.014711347
-0.27317494
0.029679137
-0.30490516
0.035690342
-0.33826954
0.035558771
-0.37237911
0.031776043
-0.40676981
0.026111836
-0.44118175
0.020037543
-0.47566388
0.01453114
-0.51058888
0.010057231
-0.54651764
0.006678395
-0.58403272
0.0042340872
-0.62362805
0.0024975473
-0.66568138
0.0012682919
-0.71047792
0.00040146924
-0.75825657
-0.00019804907
-0.80924865
-0.00059157269
-0.86369882
-0.00082156688
-0.92187695
-0.00092026832
-0.98409028
-0.00091439303
-1.050657
-0.00082693304
-1.1219661
-0.00067755623
-1.1983813
-0.00048200063
-1.2804125
-0.00025371752
-1.3683952
-0.16155607
-0.30109442
-0.15965601
-0.19381449
-0.15488721
0.040739025
-0.1537116
0.20122433
-0.1554778
0.24021448
-0.15840186
0.130067
-0.29153211
-0.16099169
-0.19719897
-0.15745805
-0.012952925
-0.15341359
0.18765946
-0.15505477
0.28442694
-0.16277921
0.28946571
-0.17321007
0.24051141
-0.1870028
0.12751733
-0.20415214
-0.059748349
-0.21906396
-0.21877761
-0.19316183
-0.24702009
-0.19575842
-0.21927341
-0.19684218
-0.159766
-0.19650723
-0.079910443
-0.20024389
-0.013204304
-0.21975946
0.020279264
-0.24889963
0.036467379
-0.27996318
0.043282799
-0.31249761
0.04318422
-0.34589499
0.038870617
-0.37947369
0.03224207
-0.41290005
0.024934982
-0.44607919
0.018169439
-0.47930218
0.012605843
-0.51313749
0.0083998196
-0.54823906
0.0053853448
-0.58518398
0.0032766615
-0.62440716
0.0018038685
-0.66621696
0.00076792355
-0.71084437
4.0243237e-05
-0.75849486
-0.00045780494
-0.80938242
-0.00077586844
-0.86374452
-0.00094888129
-0.92184834
-0.0010046766
-0.984
-0.00096717196
-1.0505168
-0.00085736477
-1.1217863
-0.00069310447
-1.1981702
-0.00048856088
-1.2801777
-0.00025539367
-1.3681398
-0.16104146
-0.29204672
-0.16164828
-0.29910215
-0.15847694
-0.19022476
-0.15414476
0.041172191
-0.1541537
0.19990024
-0.15716162
0.23897424
-0.16140414
0.13030144
-0.20000249
-0.15818817
-0.015396894
-0.15501408
0.19074631
-0.15650044
0.29258152
-0.16320934
0.29903677
-0.17235027
0.25245435
-0.185153
0.14254122
-0.20202669
-0.04537359
-0.2185269
-0.21812971
-0.21971185
-0.26044427
-0.17973765
-0.23355466
-0.18147717
-0.17473521
-0.18187297
-0.092719137
-0.18369854
-0.014841677
-0.19860651
0.026708218
-0.22618841
0.04428578
-0.25671803
0.051705778
-0.28838616
0.051753415
-0.32106681
0.046912153
-0.35393652
0.039312385
-0.386544
0.030668274
-0.41863334
0.022457011
-0.45036677
0.015589085
-0.48228542
0.010370311
-0.51510798
0.0066592872
-0.549513
0.0041102317
-0.58601755
0.0023674213
-0.62497072
0.0011582476
-0.66660729
0.00030662331
-0.71111075
-0.00029110809
-0.75866156
-0.00069488409
-0.80946341
-0.0009427016
-0.8637507
-0.0010626747
-0.92179034
-0.001078731
-0.98388844
-0.0010122339
-1.0503619
-0.00088228362
-1.1215972
-0.00070493618
-1.1979538
-0.00049285972
-1.2799402
-0.00025605384
-1.3678838
-0.15977323
-0.20127072
-0.16262786
-0.29106714
-0.16176758
-0.29581151
-0.15790867
-0.18646085
-0.15402214
0.041040626
-0.15505592
0.19779454
-0.15933025
0.23690035
-0.16487936
0.12988361
-0.016431963
-0.1571531
0.1943292
-0.15859697
0.29996654
-0.16388547
0.3071791
-0.17135167
0.26267093
-0.18256685
0.15570126
-0.19831305
-0.031282122
-0.21611816
-0.21548022
-0.22117639
-0.26963286
-0.21052326
-0.24623488
-0.16705743
-0.18806749
-0.16814488
-0.10533273
-0.16925937
-0.018474927
-0.18006529
0.033259289
-0.20515758
0.053196362
-0.23509899
0.060913374
-0.26592562
0.061177826
-0.29781057
0.055891678
-0.33004633
0.047344852
-0.36196899
0.03730344
-0.39317917
0.027472265
-0.42364859
0.019065459
-0.45384314
0.012611822
-0.48452693
0.0080444793
-0.51649317
0.0049673283
-0.5503701
0.0029219704
-0.5865721
0.0015388279
-0.6253513
0.00057490392
-0.66687557
-0.00010969006
-0.71129217
-0.00058998603
-0.75876646
-0.00090815662
-0.80949795
-0.0010916462
-0.86372173
-0.0011629048
-0.92170617
-0.0011425915
-0.98375808
-0.0010498394
-1.0501943
-0.00090196864
-1.1214001
-0.00071331586
-1.1977333
-0.00049511569
-1.2797011
-0.00025580214
-1.367628
-0.16017186
-0.016033333
-0.1627171
-0.20118148
-0.16431866
-0.28851606
-0.16245593
-0.29126425
-0.15795308
-0.1825299
-0.15442847
0.04041317
-0.15637832
0.1948426
-0.16190851
0.2339295
-0.16872885
0.12873821
0.19852219
-0.16134609
0.30631747
-0.1649479
0.31373194
-0.17043831
0.27086932
-0.17955005
0.16655167
-0.19341725
-0.018136019
-0.21145915
-0.21150778
-0.2200906
-0.27742542
-0.21338382
-0.26038104
-0.19637711
-0.19986866
-0.15525626
-0.11712419
-0.15635342
-0.023751277
-0.16398302
0.039160081
-0.18596608
0.06308226
-0.21504348
0.070882439
-0.24506806
0.071321132
-0.27606893
0.065768615
-0.30768751
0.056332896
-0.33903438
0.044892847
-0.3695584
0.033296952
-0.39900386
0.023105216
-0.42768835
0.015155537
-0.45638685
0.0095299773
-0.48601243
0.0058093886
-0.51733523
0.0034188212
-0.55086695
0.001863347
-0.58689662
0.00080772459
-0.62558412
5.9641404e-05
-0.6670449
-0.00047896472
-0.71140319
-0.00085602929
-0.75881859
-0.0010976241
-0.80949197
-0.0012228956
-0.86366173
-0.0012498813
-0.92159888
-0.0011966394
-0.98361128
-0.0010803768
-1.0500159
-0.00091678042
-1.1211967
-0.00071854408
-1.1975099
-0.00049552465
-1.2794614
-0.00025473614
-1.3673733
-0.16473185
0.20308218
-0.16379496
-0.014955475
-0.16612027
-0.19937987
-0.16654393
-0.28442806
-0.16363993
-0.2855774
-0.15852293
-0.17843544
-0.15521558
0.039250434
-0.15806617
0.19100026
-0.1648096
0.23001025
-0.17284602