/*--------------------------------*- C++ -*----------------------------------*\
  =========                 |
  \\      /  F ield         | OpenFOAM: The Open Source CFD Toolbox
   \\    /   O peration     | Website:  https://openfoam.org
    \\  /    A nd           | Version:  8
     \\/     M anipulation  |
\*---------------------------------------------------------------------------*/
FoamFile
{
    version     2.0;
    format      ascii;
    class       surfaceScalarField;
    location    "200.966377299857271";
    object      phi_0;
}
// * * * * * * * * * * * * * * * * * * * * * * * * * * * * * * * * * * * * * //

dimensions      [0 3 -1 0 0 0 0];

internalField   nonuniform List<scalar> 
18180
(
-0.0015457789
-1.3871003
-0.0030227421
-1.2972929
-0.0014829263
-1.3856174
-0.0044302995
-1.2134549
-0.0028895204
-1.2958863
-0.0014193498
-1.384198
-0.0057892622
-1.1351232
-0.0042166437
-1.2121278
-0.0027637383
-1.2945419
-0.0013390904
-1.3828589
-0.0070975373
-1.0618949
-0.0054609371
-1.1338789
-0.0040397026
-1.2108518
-0.0026112442
-1.2932697
-0.0012518399
-1.3816071
-0.0083368795
-0.99340411
-0.0065944968
-1.0607614
-0.0052461594
-1.1326724
-0.0038272587
-1.2096358
-0.0024442082
-1.2920774
-0.0011516459
-1.3804554
-0.009481039
-0.9293099
-0.0075823368
-0.99241627
-0.0063594575
-1.0596481
-0.0049969195
-1.1315027
-0.0035926207
-1.2084874
-0.0022494893
-1.2909795
-0.0010452553
-1.3794102
-0.01051824
-0.86931363
-0.0083727395
-0.92851949
-0.0073516818
-0.99142405
-0.0061159231
-1.0585291
-0.0047167291
-1.1303786
-0.0033095192
-1.2074274
-0.0020400024
-1.2899848
-0.00093667816
-1.3784735
-0.011418402
-0.81311318
-0.0089278974
-0.86875847
-0.0081830143
-0.92768816
-0.0071669991
-0.99037297
-0.0058317961
-1.057414
-0.0043564424
-1.1293317
-0.0029986563
-1.2064687
-0.0018238783
-1.2890976
-0.00083233225
-1.3776412
-0.012139682
-0.76044568
-0.0091349878
-0.81290609
-0.0087923455
-0.86814914
-0.0081262197
-0.92672894
-0.0069494241
-0.98925534
-0.0054248354
-1.0563456
-0.0039430907
-1.1283873
-0.0026722286
-1.2056204
-0.0016152635
-1.2883146
-0.00073667066
-1.3769045
-0.012553608
-0.71108877
-0.0088411936
-0.76073947
-0.0091273957
-0.81257104
-0.0089475973
-0.86732776
-0.0080817946
-0.92559657
-0.0065580934
-0.98812208
-0.0049077685
-1.0553809
-0.0034967152
-1.1275628
-0.0023549605
-1.2048807
-0.0014250103
-1.2876263
-0.00065351156
-1.376251
-0.012594149
-0.66475968
-0.0078173912
-0.71211257
-0.0091518843
-0.76071498
-0.0096421835
-0.81187645
-0.0092752646
-0.86613429
-0.0078066682
-0.924348
-0.0059422152
-0.98708764
-0.0043192456
-1.0545584
-0.003058254
-1.1268595
-0.0020666682
-1.204239
-0.0012608118
-1.287019
-0.00058383052
-1.3756672
-0.012026001
-0.62124976
-0.0058615658
-0.66671551
-0.0087301895
-0.71253426
-0.010267882
-0.76008928
-0.010618225
-0.81053349
-0.0092444035
-0.86469656
-0.0071057586
-0.92318445
-0.0051732071
-0.98623367
-0.0037315142
-1.0538851
-0.0026612515
-1.1262649
-0.0018202762
-1.2036795
-0.0011247171
-1.2864781
-0.00052570036
-1.3751415
-0.010780226
-0.58036504
-0.0026971947
-0.62441413
-0.0076248822
-0.66782081
-0.010853675
-0.71194847
-0.012155853
-0.75855166
-0.010952339
-0.80882555
-0.0084618025
-0.86334051
-0.0060956307
-0.92226203
-0.0043827654
-0.98558242
-0.0032023803
-1.053344
-0.0023272812
-1.1257579
-0.0016200577
-1.2031842
-0.0010127987
-1.285991
-0.00047617366
-1.3746653
-0.0088185337
-0.54204042
0.0019030416
-0.58496528
-0.0056898376
-0.62634917
-0.011362367
-0.66731212
-0.014020793
-0.71008353
-0.013021771
-0.75648223
-0.010072617
-0.80721474
-0.0071172469
-0.8623189
-0.0050179775
-0.92162682
-0.0036771542
-0.98510765
-0.0027681159
-1.0529032
-0.0020640716
-1.1253139
-0.0014597928
-1.2027372
-0.00091846991
-1.2855487
-0.00043212711
-1.3742332
-0.0060274367
-0.50610082
0.0081103859
-0.54824776
-0.0026607523
-0.58799437
-0.011734553
-0.62597699
-0.01639464
-0.66493828
-0.015661749
-0.70744355
-0.012047773
-0.75450707
-0.0082691166
-0.80606287
-0.0056316297
-0.86170524
-0.0040645057
-0.92123946
-0.0031188532
-0.98475691
-0.0024415212
-1.0525257
-0.0018627454
-1.1249109
-0.0013277535
-1.2023279
-0.00083470474
-1.2851461
-0.00039099665
-1.3738422
-0.0023214599
-0.4722243
0.016008715
-0.51399915
0.0016625067
-0.55257102
-0.01189883
-0.58783009
-0.019446386
-0.62292524
-0.019110344
-0.66148968
-0.014547125
-0.7049442
-0.0096113887
-0.7531648
-0.0062068862
-0.80548761
-0.0043308326
-0.86143892
-0.0033445801
-0.92101374
-0.0027272964
-0.98447114
-0.0022105383
-1.0521779
-0.0017035289
-1.1245352
-0.0012112627
-1.2019514
-0.00075575004
-1.2847814
-0.00035117598
-1.373491
0.0023163042
-0.44027546
0.025702602
-0.48191819
0.007303603
-0.51964024
-0.011784176
-0.55268567
-0.023401439
-0.58387504
-0.023628748
-0.61840684
-0.017756706
-0.6582801
-0.011204421
-0.70335117
-0.0067308139
-0.75264087
-0.0044175777
-0.80540087
-0.0033975211
-0.86138598
-0.002888408
-0.92085263
-0.0024843006
-0.98419737
-0.0020421112
-1.0518394
-0.0015649244
-1.1241815
-0.0010998977
-1.2016072
-0.00067805388
-1.2844545
-0.00031206402
-1.3731789
0.0078316016
-0.4101021
0.037193124
-0.45176598
0.014395975
-0.48901056
-0.011422135
-0.52000228
-0.028518181
-0.54756893
-0.029537647
-0.57796614
-0.021887591
-0.61427595
-0.013122261
-0.65636226
-0.0071772609
-0.70290472
-0.0042503549
-0.75280809
-0.0031952456
-0.80560314
-0.0028755137
-0.86139887
-0.0026624174
-0.92067451
-0.0023343202
-0.98390516
-0.0018995022
-1.0515048
-0.0014293899
-1.123852
-0.000987342
-1.2012979
-0.00060036284
-1.2841662
-0.00027391536
-1.372905
0.014159836
-0.38155216
0.050280506
-0.42318949
0.023047736
-0.46041774
-0.010832738
-0.48959995
-0.034937957
-0.51358251
-0.037177684
-0.53992889
-0.027178179
-0.57267555
-0.015452246
-0.61194597
-0.0075095419
-0.65602998
-0.0037368834
-0.70341819
-0.0026266523
-0.75337669
-0.0026065839
-0.80587207
-0.0027010536
-0.86136023
-0.0025662975
-0.92044253
-0.0022171056
-0.98358756
-0.0017545404
-1.0511796
-0.0012865829
-1.1235528
-0.00087147155
-1.2010268
-0.00052337959
-1.2839167
-0.00023757873
-1.3726674
0.021082412
-0.35429699
0.064685002
-0.39595666
0.033277259
-0.43341901
-0.010040756
-0.46120972
-0.042840519
-0.48169739
-0.046681246
-0.50407895
-0.033891371
-0.5332157
-0.018280048
-0.56984775
-0.0076858784
-0.61176963
-0.0027646792
-0.65700219
-0.0015581428
-0.7044867
-0.001964697
-0.75401857
-0.00255265
-0.80602048
-0.0027233443
-0.86120319
-0.0025185683
-0.92014107
-0.0020895718
-0.98325253
-0.0015907176
-1.0508755
-0.0011328403
-1.1232914
-0.00075368883
-1.2007965
-0.00044914587
-1.2837052
-0.00020418579
-1.3724632
0.028287621
-0.32806472
0.079759278
-0.36937127
0.04508391
-0.40776331
-0.0089002983
-0.43455947
-0.05236758
-0.45168266
-0.058186706
-0.47019193
-0.04216345
-0.49580687
-0.021699526
-0.52979623
-0.0076442135
-0.56988941
-0.0012078757
-0.61332643
0.00015839683
-0.65871872
-0.00080714076
-0.70564426
-0.0021179429
-0.75445328
-0.0028046915
-0.80593913
-0.0028244792
-0.86089728
-0.0024557475
-0.91977489
-0.0019222891
-0.98292096
-0.0014015625
-1.0506068
-0.00097015698
-1.1230749
-0.00063782421
-1.2006078
-0.00038029814
-1.2835291
-0.00017490763
-1.3722883
0.035639367
-0.30300897
0.094858064
-0.34316351
0.057777582
-0.38206494
-0.0068532257
-0.40981038
-0.063270978
-0.42365607
-0.071807176
-0.43806219
-0.052078746
-0.46027664
-0.025833736
-0.49167266
-0.0072931429
-0.5301473
0.0010808082
-0.5721781
0.0026971152
-0.61586515
0.0010178565
-0.66054372
-0.0012874068
-0.7064748
-0.0027606424
-0.75449733
-0.0031546198
-0.80560899
-0.0028906689
-0.86046236
-0.0023165543
-0.91938063
-0.0017029602
-0.98261956
-0.0011896178
-1.0503873
-0.00080516947
-1.1229076
-0.00052868843
-1.2004594
-0.00031944886
-1.2833845
-0.00015069625
-1.3721376
0.042980141
-0.27918105
0.10979968
-0.31795059
0.071136508
-0.35652243
-0.0027995471
-0.38611862
-0.074801247
-0.39828011
-0.087460191
-0.40800305
-0.06371872
-0.42642222
-0.030694988
-0.45541539
-0.0066196453
-0.49234615
0.0042836493
-0.53335014
0.0062459283
-0.57572691
0.0036908571
-0.61853815
6.2088335e-05
-0.66189322
-0.0025318802
-0.70670356
-0.0035318579
-0.75412009
-0.0034363335
-0.80506333
-0.0028175607
-0.85996135
-0.0020768743
-0.91900671
-0.0014361844
-0.982373
-0.0009649659
-1.0502275
-0.0006461292
-1.1227901
-0.00043091162
-1.200348
-0.00026869153
-1.2832665
-0.00013208899
-1.3720055
0.050127528
-0.25662778
0.12426074
-0.2936421
0.08486713
-0.33168121
0.0021547639
-0.36147674
-0.085581694
-0.37533817
-0.10502724
-0.38071306
-0.077340235
-0.39438154
-0.036245501
-0.4208717
-0.0055566143
-0.45647841
0.0085649024
-0.49662741
0.011016999
-0.53812121
0.0074205663
-0.57945662
0.0020842806
-0.62056034
-0.002052626
-0.66237247
-0.0039717181
-0.7062637
-0.0041642964
-0.75339213
-0.0034869886
-0.8043939
-0.0025693909
-0.85946883
-0.0017464668
-0.91869643
-0.001137987
-0.98219997
-0.00074150434
-1.0501321
-0.00050124374
-1.1227198
-0.00034822869
-1.2002684
-0.00022926878
-1.2831693
-0.00011917192
-1.3718864
0.056946149
-0.23545171
0.13799128
-0.27035831
0.098457327
-0.3072323
0.0063799069
-0.33590635
-0.095903926
-0.35115451
-0.12449526
-0.35587015
-0.093340585
-0.36471271
-0.042712959
-0.38791408
-0.0039065657
-0.42252175
0.013987228
-0.46190074
0.017252362
-0.50286277
0.012433495
-0.54313414
0.0049661794
-0.58233852
-0.0012397171
-0.62137325
-0.004483891
-0.6618603
-0.0051577096
-0.70527029
-0.0044236883
-0.75245543
-0.0032484108
-0.80371488
-0.002165283
-0.85905002
-0.0013537908
-0.91848063
-0.00083033575
-0.98211114
-0.00053432439
-1.0500991
-0.00037723103
-1.1226908
-0.0002831376
-1.2002146
-0.00020149029
-1.283087
-0.00011165151
-1.3717747
0.06334286
-0.21572834
0.15083203
-0.24829246
0.1114237
-0.28332469
0.0099005051
-0.3107529
-0.10662361
-0.32518668
-0.1438683
-0.33178147
-0.11155398
-0.33765676
-0.050632546
-0.35679312
-0.0015628394
-0.39025781
0.020654969
-0.42918949
0.025101772
-0.46975015
0.018970842
-0.50940012
0.008920075
-0.54708803
1.0909061e-05
-0.58358914
-0.0050832266
-0.62077392
-0.0065072378
-0.66051077
-0.0057486858
-0.70394529
-0.0042186264
-0.75148521
-0.0027543966
-0.80312576
-0.001651443
-0.85875236
-0.00093475457
-0.91837621
-0.00053825279
-0.98210721
-0.00035509802
-1.0501212
-0.00027859703
-1.1226954
-0.00023662385
-1.2001794
-0.00018493772
-1.2830137
-0.00010894113
-1.3716658
0.069260507
-0.19749741
0.16269695
-0.22759326
0.12347486
-0.26034362
0.013027259
-0.28645144
-0.11760957
-0.29976693
-0.16159468
-0.3074603
-0.13046472
-0.31287073
-0.060327615
-0.32796169
0.0012771665
-0.35963313
0.028785663
-0.3983885
0.03456488
-0.4386526
0.027296858
-0.47807617
0.014182136
-0.51466218
0.0018360965
-0.54891322
-0.0057821996
-0.58289017
-0.00832696
-0.6189542
-0.0076039241
-0.65865553
-0.0056093217
-0.70255459
-0.0036029258
-0.75063669
-0.0020785727
-0.80269863
-0.0010835029
-0.85860362
-0.0005275644
-0.9183869
-0.00028334165
-0.98217897
-0.00021155292
-1.0501882
-0.00020757977
-1.1227244
-0.00020819493
-1.2001562
-0.00017837945
-1.2829443
-0.00011024558
-1.3715555
0.074675844
-0.18075136
0.17355176
-0.20835222
0.13445015
-0.23856855
0.015714655
-0.26303102
-0.12847068
-0.27559033
-0.17794919
-0.28341242
-0.14844805
-0.28947697
-0.071643035
-0.30155531
0.0040671097
-0.33075164
0.038452753
-0.36930022
0.045750313
-0.40957394
0.037592155
-0.4489479
0.021036198
-0.48493023
0.004398299
-0.51722438
-0.0066060387
-0.54808938
-0.010759413
-0.58045772
-0.010165576
-0.61639255
-0.0075719894
-0.65669287
-0.0048222337
-0.70133529
-0.0026953139
-0.75001994
-0.0013054573
-0.80247668
-0.00051782284
-0.85861336
-0.00016695726
-0.91850328
-7.7844339e-05
-0.98231268
-0.00010765646
-1.0502882
-0.00016436139
-1.1227682
-0.00019639321
-1.2001382
-0.00017958818
-1.282875
-0.00011522371
-1.3714403
0.079595787
-0.16546789
0.18341112
-0.19061072
0.14431316
-0.21821524
0.017989843
-0.24084373
-0.13899274
-0.25250896
-0.19339966
-0.26013986
-0.16514383
-0.26671664
-0.083834033
-0.27728597
0.0062640501
-0.30375225
0.049506081
-0.34180497
0.058760278
-0.38231018
0.049909933
-0.42189171
0.029864632
-0.45777633
0.0079042187
-0.48843615
-0.007552356
-0.51627806
-0.013972818
-0.54487598
-0.013649066
-0.57697423
-0.010287855
-0.61367668
-0.0065404823
-0.65497462
-0.0035790275
-0.70045157
-0.001630278
-0.74969512
-0.00051662465
-0.80247788
-5.5904454e-06
-0.85877472
0.00012707857
-0.91870821
7.2981017e-05
-0.98249332
-4.3581106e-05
-1.0504089
-0.000147007
-1.1228176
-0.00019851643
-1.2001192
-0.00019052296
-1.2827997
-0.00012332784
-1.371317
0.082536704
-0.17704249
0.19227765
-0.17433442
0.15307971
-0.19937727
0.01987334
-0.22009874
-0.14895209
-0.23088438
-0.20788699
-0.23802163
-0.18057878
-0.24470491
-0.095880547
-0.25467012
0.0076522386
-0.27867416
0.061632483
-0.31587866
0.073566437
-0.35661113
0.064286773
-0.39668702
0.040875128
-0.43290221
0.012652453
-0.46252457
-0.0086028329
-0.48738567
-0.018180039
-0.51207085
-0.018312889
-0.54021216
-0.013971856
-0.57329023
-0.0089036651
-0.6113135
-0.0048183384
-0.65373531
-0.0020962424
-0.69998561
-0.00052970007
-0.74968205
0.00021245335
-0.80269592
0.00042168561
-0.85906933
0.00034910518
-0.91898433
0.00016965894
-0.98270656
-1.6373412e-05
-1.0505396
-0.00015107072
-1.1228651
-0.00021618383
-1.2000936
-0.00020817323
-1.2827148
-0.00013367439
-1.3711833
0.085789682
-0.17328465
0.1986426
-0.18340745
0.16080923
-0.18206394
0.021397869
-0.20090179
-0.15821648
-0.21083435
-0.22138771
-0.21738367
-0.19468456
-0.22391584
-0.10702931
-0.23355615
0.0084754784
-0.25549336
0.07449075
-0.29153243
0.090066835
-0.33237906
0.080712076
-0.37303643
0.054056769
-0.40986866
0.018885787
-0.43913554
-0.0097649714
-0.46136243
-0.023623753
-0.48194196
-0.0244515
-0.50593223
-0.018862923
-0.53532109
-0.012074914
-0.57011898
-0.0065071216
-0.60962472
-0.0027473456
-0.6530842
-0.00056228096
-0.69995303
0.00050016998
-0.74996977
0.00083009416
-0.80310433
0.00074952741
-0.85946975
0.00049669832
-0.91931137
0.00021487556
-0.98293781
-2.01405e-05
-1.0506705
-0.0001746157
-1.1229066
-0.00024496721
-1.2000568
-0.00023008438
-1.2826184
-0.00014553903
-1.3710378
0.089254529
-0.16958398
0.20497725
-0.1796193
0.16767542
-0.19027363
0.022677314
-0.18334339
-0.16668533
-0.19243294
-0.23384773
-0.19837432
-0.20746765
-0.20460058
-0.11699008
-0.21395506
0.0090773128
-0.23415799
0.087719765
-0.26872238
0.10801154
-0.30947714
0.099000478
-0.35066746
0.069315386
-0.38829505
0.026679367
-0.41766224
-0.011092082
-0.43780843
-0.030593682
-0.4543925
-0.032424384
-0.47396907
-0.025228791
-0.49956637
-0.016222924
-0.53117308
-0.0087413996
-0.5678847
-0.0036246713
-0.60874739
-0.00061688108
-0.6530296
0.00087381017
-0.70032667
0.0013768459
-0.75051652
0.001302516
-0.80365732
0.00097052633
-0.85994358
0.00057289868
-0.91966939
0.00021559316
-0.98317354
-5.0623751e-05
-1.0507945
-0.00021487619
-1.1229367
-0.00028035213
-1.2000065
-0.00025538195
-1.2825086
-0.00015825918
-1.3708795
0.092836933
-0.16603372
0.21113264
-0.17573937
0.17447197
-0.18641585
0.026332516
-0.19392883
-0.17430782
-0.1757209
-0.2452377
-0.18104297
-0.2189465
-0.18689548
-0.12569281
-0.19589785
0.0097017626
-0.21457951
0.10098161
-0.24741983
0.12689289
-0.28760373
0.1186212
-0.32909786
0.086076388
-0.36742846
0.035697131
-0.39731281
-0.012752779
-0.41600155
-0.039415577
-0.42898654
-0.04264428
-0.4441726
-0.033394385
-0.46580348
-0.021529541
-0.49425975
-0.011611721
-0.52830276
-0.0047622774
-0.5667471
-0.00068825655
-0.60867601
0.0013630382
-0.65351883
0.002094766
-0.70104459
0.0020396994
-0.7512537
0.0016165354
-0.80430333
0.0010847478
-0.86045543
0.00058238259
-0.92003618
0.00017783589
-0.983402
-0.00010432419
-1.050905
-0.00026609744
-1.122951
-0.0003211968
-1.1999407
-0.00028231201
-1.2823845
-0.00017125953
-1.3707083
0.096453763
-0.16272711
0.21696403
-0.17186511
0.18103296
-0.18230036
0.030334717
-0.19041805
-0.17832676
-0.18990989
-0.25560255
-0.16535605
-0.22915348
-0.17083599
-0.13319948
-0.17938881
0.010471028
-0.19666712
0.11403624
-0.22763414
0.14613679
-0.26666373
0.13866406
-0.30764659
0.10335473
-0.3463762
0.045259807
-0.37699114
-0.015515041
-0.39455055
-0.050612549
-0.40480457
-0.055437977
-0.41619284
-0.04373161
-0.43383538
-0.028181326
-0.4591517
-0.015194865
-0.49067661
-0.0061809776
-0.52688406
-0.0007575618
-0.56667779
0.0020062867
-0.60931926
0.0030295067
-0.65445357
0.0030063185
-0.70201121
0.0024729188
-0.75211009
0.0017762074
-0.80499479
0.0011012984
-0.86097435
0.0005343308
-0.92039268
0.00010793281
-0.98361426
-0.00017491686
-1.0509962
-0.00032590622
-1.1229463
-0.00036466401
-1.1998583
-0.00030977128
-1.282246
-0.00018405599
-1.3705242
0.10003835
-0.15975239
0.22234518
-0.16810826
0.18719702
-0.17802917
0.034458691
-0.18642433
-0.18142854
-0.18731627
-0.26465251
-0.18085993
-0.23820902
-0.15630051
-0.13964468
-0.16439079
0.011410867
-0.18032865
0.12668831
-0.20931919
0.16522564
-0.24672299
0.15852867
-0.28652834
0.12028436
-0.32457622
0.054921449
-0.35603784
-0.019861054
-0.37264512
-0.064932199
-0.3802309
-0.071109527
-0.38913302
-0.056483358
-0.40344109
-0.036386559
-0.42563015
-0.019538998
-0.45480756
-0.0078774522
-0.48898013
-0.00079591102
-0.52684571
0.0028561198
-0.56752762
0.0042418004
-0.61053156
0.0042607572
-0.65570801
0.0035926314
-0.70313092
0.0026903407
-0.75302422
0.0018005224
-0.80569402
0.0010375463
-0.86147756
0.00044064962
-0.92072539
1.3018655e-05
-0.98380219
-0.00025718295
-1.051065
-0.0003904218
-1.1229205
-0.00040917014
-1.1997589
-0.00033695049
-1.2820931
-0.00019624915
-1.3703279
0.10353952
-0.15720533
0.22717488
-0.1645821
0.19282703
-0.17373827
0.038566786
-0.18213727
-0.18371685
-0.18413603
-0.27282102
-0.17914776
-0.24918526
-0.16988369
-0.14522703
-0.15071816
0.012472932
-0.16545285
0.1387906
-0.19243094
0.18374355
-0.2278371
0.17785246
-0.26604677
0.13670933
-0.30295331
0.064558193
-0.33421297
-0.024628038
-0.35127085
-0.082358336
-0.35521898
-0.089733821
-0.3616066
-0.071629878
-0.3739865
-0.046253069
-0.39357458
-0.024666937
-0.42050221
-0.009816259
-0.45286876
-0.00075782186
-0.48901822
0.0039749214
-0.52796451
0.0058026311
-0.56908846
0.0058739694
-0.61214477
0.0050392748
-0.65715465
0.0038795119
-0.70432009
0.0027207675
-0.75394446
0.0017142854
-0.80637075
0.00091106707
-0.86194798
0.00031268593
-0.92102506
-9.868373e-05
-0.98396069
-0.00034683808
-1.0511085
-0.00045587143
-1.1228738
-0.00045365683
-1.1996422
-0.00036295021
-1.2819264
-0.00020757045
-1.3701204
0.10690636
-0.15516302
0.23136828
-0.16139873
0.19780944
-0.16956451
0.042527534
-0.17769902
-0.18519927
-0.18065484
-0.2799998
-0.17695725
-0.25911554
-0.16921747
-0.15732342
-0.1577873
0.013744482
-0.15198971
0.15022145
-0.1768837
0.20140739
-0.21009478
0.19634669
-0.24633133
0.15259144
-0.28192888
0.073864084
-0.31225921
-0.028439861
-0.33040114
-0.10127064
-0.33235855
-0.11091665
-0.33403616
-0.088678626
-0.34455786
-0.057582435
-0.36265714
-0.030590003
-0.38765152
-0.01191722
-0.41840125
-0.00056994988
-0.45305663
0.0054346849
-0.49047798
0.0077951348
-0.52995701
0.0079275573
-0.57114204
0.0068870763
-0.61399257
0.0054053475
-0.65868049
0.0039089386
-0.70550826
0.0025986539
-0.75482883
0.0015418656
-0.80700155
0.00073821758
-0.86237351
0.00016138014
-0.92128513
-0.00022050591
-0.98408702
-0.00043865053
-1.0511258
-0.00052119043
-1.1228063
-0.00049608711
-1.1995091
-0.00038712781
-1.2817468
-0.00021788293
-1.3699025
0.11008102
-0.15370003
0.23487037
-0.15866511
0.20204707
-0.16563636
0.046228086
-0.17326506
-0.18591362
-0.17698468
-0.28613603
-0.17451861
-0.26791734
-0.16815545
-0.16842398
-0.15811692
0.0048040962
-0.14884691
0.16105553
-0.1628238
0.21801591
-0.19349222
0.21370913
-0.22745722
0.16768837
-0.26142825
0.082628823
-0.29069362
-0.031981611
-0.30871746
-0.11970705
-0.31196474
-0.13371866
-0.30955654
-0.10725943
-0.31545536
-0.069719885
-0.33242041
-0.037092675
-0.35615447
-0.014115652
-0.38545308
-0.00012190976
-0.41884929
0.0073230363
-0.45494498
0.010308838
-0.49299169
0.010511653
-0.53254111
0.0092199886
-0.57347496
0.0073390124
-0.61592624
0.0054196811
-0.66019123
0.0037297714
-0.70663938
0.002359561
-0.75564653
0.0013071074
-0.80757044
0.00053427964
-0.86274641
-3.5149251e-06
-0.92150212
-0.00034658445
-0.98417909
-0.00052989815
-1.051117
-0.00058403795
-1.1227183
-0.00053568363
-1.1993605
-0.00040940944
-1.2815553
-0.00022705393
-1.3696754
-0.15285861
0.11299691
0.23764329
-0.15647295
0.20546927
-0.16208732
0.049584578
-0.16899285
-0.18590418
-0.1732745
-0.29117832
-0.17194239
-0.27556876
-0.16686719
-0.17845222
-0.1581272
-0.0036772279
-0.1496356
0.16225324
-0.15004461
0.23342651
-0.1782344
0.22981475
-0.20959785
0.18176843
-0.24153728
0.090721778
-0.26952121
-0.035865555
-0.28680968
-0.13684
-0.29158451
-0.15651348
-0.28916991
-0.12742211
-0.28939386
-0.082385842
-0.3027894
-0.043631094
-0.32588199
-0.016259006
-0.35401111
0.00071599075
-0.38629099
0.0097409426
-0.42126719
0.013434794
-0.45807094
0.013721004
-0.49620104
0.012128472
-0.53544959
0.0097602158
-0.57589616
0.0073157346
-0.61782229
0.0051520799
-0.66161354
0.0033936234
-0.70767344
0.0020381428
-0.75637756
0.0010319253
-0.80806809
0.00031274914
-0.86306268
-0.00017382941
-0.92167487
-0.00047208799
-0.9842369
-0.00061830644
-1.0510828
-0.00064277964
-1.1226112
-0.00057230393
-1.1991977
-0.00042934123
-1.281353
-0.00023492596
-1.3694405
-0.15491891
0.23970359
-0.15264558
0.11554916
0.20802185
-0.15902553
0.052532754
-0.16503549
-0.18521335
-0.16968368
-0.29508038
-0.16937244
-0.28203729
-0.16547385
-0.18733754
-0.15798188
-0.011545174
-0.15025926
0.16354337
-0.15092573
0.2426009
-0.159219
0.24436811
-0.19278775
0.19466071
-0.22249013
0.098120766
-0.24893627
-0.039834102
-0.26555266
-0.15272462
-0.27092505
-0.17761805
-0.27047994
-0.14844026
-0.26815176
-0.096632623
-0.27514708
-0.049787174
-0.29663332
-0.018048913
-0.32409208
0.0020356517
-0.35533077
0.012816451
-0.38936649
0.017262733
-0.42509513
0.017647237
-0.46199717
0.015705699
-0.49977826
0.012754588
-0.53844397
0.0096670901
-0.57824751
0.006915671
-0.61958588
0.0046762205
-0.66289614
0.0029504373
-0.70858574
0.0016656183
-0.75701126
0.0007351805
-0.80849052
8.4792811e-05
-0.8633213
-0.00034327265
-0.92180369
-0.00059352948
-0.98426168
-0.00070160502
-1.051024
-0.00069692366
-1.1224866
-0.00060496472
-1.199022
-0.00044659267
-1.2811414
-0.00024161392
-1.3691989
-0.15657826
0.2096812
-0.15391977
0.24097778
-0.15317478
0.11780486
0.055031104
-0.16152388
-0.18387941
-0.16636944
-0.29781184
-0.16695222
-0.28730768
-0.16410205
-0.1950125
-0.15779889
-0.018691271
-0.15083578
0.16490142
-0.15161731
0.25188926
-0.1602141
0.25648173
-0.17133262
0.206115
-0.20424204
0.1046327
-0.22900207
-0.043741495
-0.24502888
-0.16755764
-0.25071964
-0.19672905
-0.25181405
-0.16909734
-0.24982286
-0.11337834
-0.25140604
-0.056274859
-0.26865939
-0.019065887
-0.29561634
0.0039475822
-0.32600401
0.016651522
-0.35916585
0.02187899
-0.39398275
0.022372113
-0.42982001
0.020040856
-0.46633232
0.016410323
-0.503434
0.0125493
-0.54132618
0.0090762548
-0.5804081
0.0062421223
-0.62115178
0.0040629141
-0.66400862
0.002444432
-0.70936455
0.0012682637
-0.75754434
0.00043211014
-0.80883784
-0.00014095176
-0.86352362
-0.00050702675
-0.92189019
-0.00070836585
-0.98425492
-0.00077859267
-1.0509423
-0.00074566652
-1.1223459
-0.00063343562
-1.1988352
-0.00046135955
-1.2809216
-0.00024712901
-1.3689518
-0.15855684
0.057009682
-0.15470006
0.21046149
-0.15390604
0.24170903
-0.15439032
0.11967879
-0.18194601
-0.16345727
-0.29936347
-0.16481782
-0.29137686
-0.16288304
-0.20143605
-0.15767851
-0.024983603
-0.15150656
0.16636767
-0.15230203
0.26107027
-0.16079832
0.26837196
-0.17210433
0.22075201
-0.18596963
0.11036423
-0.20997357
-0.047510715
-0.22523285
-0.18145983
-0.23112668
-0.21426374
-0.23318496
-0.1885464
-0.232365
-0.13168138
-0.23151981
-0.064787091
-0.24289381
-0.019223608
-0.26850167
0.006684606
-0.29835337
0.021281354
-0.33063384
0.027375227
-0.36466208
0.027959833
-0.39957047
0.025211759
-0.43499091
0.020813108
-0.47073511
0.016041715
-0.50692642
0.011694429
-0.54394435
0.0081293845
-0.58229536
0.0053940115
-0.62248288
0.0033744518
-0.66493864
0.0019122104
-0.7100085
0.00086691052
-0.75797914
0.0001342982
-0.80911309
-0.0003581562
-0.86367249
-0.00066166854
-0.92193689
-0.00081477651
-0.98421874
-0.00084845409
-1.0508395
-0.00078871289
-1.1221906
-0.00065780358
-1.1986387
-0.00047343991
-1.2806953
-0.00025137793
-1.3687004
-0.16101594
-0.17948692
-0.15632562
0.058635239
-0.15387476
0.21043022
-0.15455745
0.24187616
-0.15628708
0.12111438
-0.29975909
-0.16306165
-0.29424552
-0.16194916
-0.20660629
-0.1577128
-0.030289399
-0.15237271
0.16799719
-0.15313608
0.26999903
-0.16123079
0.2797751
-0.17220145
0.23475042
-0.18610274
0.1276079
-0.2032133
-0.050715225
-0.20676906
-0.19426552
-0.21242717
-0.23033662
-0.2150538
-0.20639207
-0.21533929
-0.1497913
-0.21425508
-0.075975545
-0.22033136
-0.01926396
-0.24285345
0.010510728
-0.27232779
0.026745614
-0.30381763
0.033797792
-0.33705641
0.034456961
-0.37115921
0.031278095
-0.40563681
0.026040539
-0.44021834
0.020224693
-0.47491809
0.01483565
-0.51006764
0.010379481
-0.54619445
0.0069623106
-0.58386366
0.004458249
-0.62356668
0.0026618266
-0.66568825
0.0013821959
-0.71052378
0.0004769469
-0.75832179
-0.00015010128
-0.80932114
-0.00056248128
-0.86377168
-0.00080494251
-0.92194673
-0.00091161886
-0.98415557
-0.00091063604
-1.0507176
-0.00082596945
-1.1220225
-0.00067797576
-1.1984342
-0.00048285708
-1.2804638
-0.00025438217
-1.368446
-0.16170478
-0.29907025
-0.15953362
-0.17627891
-0.15478112
0.059541591
-0.15389027
0.20976304
-0.15576186
0.24135094
-0.15881337
0.12205005
-0.29592731
-0.16137985
-0.21063349
-0.15792196
-0.034506625
-0.15349557
0.16988928
-0.15426481
0.27852222
-0.16165926
0.29040569
-0.17186138
0.24783173
-0.18528276
0.1437232
-0.20221805
-0.035731288
-0.21819723
-0.20589901
-0.19513557
-0.2449901
-0.19777368
-0.22251565
-0.19893022
-0.16660724
-0.19852335
-0.089043011
-0.20118761
-0.020392182
-0.21920314
0.015514916
-0.24785764
0.033138606
-0.27872079
0.041100812
-0.31112065
0.041900871
-0.34450032
0.038274055
-0.37815517
0.032156385
-0.41175265
0.025176008
-0.44516965
0.018569994
-0.47865243
0.013038448
-0.5127266
0.0087872307
-0.54801936
0.0056949292
-0.58510034
0.0035055625
-0.62441041
0.001963787
-0.66626984
0.00087473308
-0.71092157
0.00010880939
-0.7585807
-0.00041557979
-0.80946804
-0.00075115008
-0.86382547
-0.00093545471
-0.92192289
-0.00099829832
-0.98406791
-0.00096498623
-1.0505786
-0.00085745378
-1.121843
-0.00069419008
-1.1982229
-0.00048980215
-1.2802284
-0.00025622363
-1.3681898
-0.16126778
-0.29636432
-0.1616715
-0.29693237
-0.15822576
-0.17283426
-0.15405702
0.059708346
-0.15437964
0.20838082
-0.15750922
0.24004679
-0.16189428
0.12241929
-0.21348794
-0.15852541
-0.037412586
-0.155016
0.17215716
-0.15576345
0.28650215
-0.16224474
0.29994381
-0.17119739
0.25963007
-0.18365972
0.15867827
-0.20023783
-0.020501049
-0.21744828
-0.20330576
-0.22079048
-0.25856882
-0.18155684
-0.23692925
-0.18336008
-0.18178237
-0.18375509
-0.10268611
-0.18488025
-0.023458578
-0.19812122
0.021260604
-0.22494882
0.040599181
-0.25531822
0.049239496
-0.28685947
0.05028028
-0.31950006
0.046206681
-0.35243294
0.039204676
-0.38520346
0.030967203
-0.41754385
0.022971021
-0.44957068
0.016158736
-0.48177272
0.010890486
-0.51482986
0.0070807921
-0.54940523
0.0044248679
-0.58601964
0.0025888068
-0.62503543
0.0013071101
-0.66670222
0.00040293153
-0.71121569
-0.00023108397
-0.7587652
-0.00065908987
-0.8095601
-0.00092262155
-0.86383831
-0.0010525111
-0.92186868
-0.0010746043
-0.98395829
-0.0010115668
-1.0504244
-0.00088336466
-1.1216538
-0.00070663822
-1.198006
-0.0004944456
-1.2799902
-0.00025702768
-1.3679328
-0.15996278
-0.21479293
-0.16270606
-0.29532976
-0.16164254
-0.29351559
-0.15753049
-0.1693608
-0.15393816
0.059266873
-0.15532173
0.20619333
-0.1597381
0.23789061
-0.16544042
0.12215082
-0.038890287
-0.15704771
0.17506245
-0.15792129
0.29383576
-0.16309706
0.30812329
-0.17042422
0.26977984
-0.18134715
0.17177699
-0.19675845
-0.0057355874
-0.2150033
-0.19868831
-0.22206573
-0.26704498
-0.21231432
-0.24974531
-0.16874078
-0.19524924
-0.16989321
-0.11587686
-0.17056435
-0.028571895
-0.17976694
0.026908509
-0.20376912
0.049186956
-0.2335366
0.058184563
-0.26426328
0.059504895
-0.29608408
0.055068788
-0.32836216
0.047202995
-0.36043126
0.037659397
-0.39189566
0.028114933
-0.42268776
0.019800768
-0.45321271
0.013299096
-0.48418133
0.0086103951
-0.51635946
0.0053942015
-0.55037456
0.0032243782
-0.58665522
0.0017432778
-0.6254716
0.00070797286
-0.66700726
-2.6017076e-05
-0.71142076
-0.00053943107
-0.75888486
-0.00087911693
-0.80960361
-0.0010762656
-0.86381455
-0.0011559575
-0.92178732
-0.001140633
-0.98382923
-0.0010506039
-1.0502572
-0.00090396496
-1.1214565
-0.00071557132
-1.1977849
-0.00049700388
-1.2797502
-0.0002568985
-1.3676759
-0.15997329
-0.038879783
-0.16281165
-0.21468733
-0.16421667
-0.29275562
-0.1621775
-0.28886858
-0.15746522
-0.16583374
-0.15434711
0.058292258
-0.15668506
0.2031403
-0.16237454
0.23482473
-0.16935145
0.12116831
0.17874229
-0.16072755
0.30028114
-0.16436666
0.31477915
-0.16975293
0.27799286
-0.17863723
0.18257961
-0.19214977
0.0078491195
-0.21034315
-0.19291038
-0.22078123
-0.27405628
-0.21505443
-0.26329353
-0.19876611
-0.20717841
-0.15681161
-0.12809223
-0.15767783
-0.035229472
-0.16390677
0.031658143
-0.18451657
0.05873697
-0.21331914
0.06793346
-0.24328549
0.069447824
-0.27420621
0.064819009
-0.30583431
0.05614175
-0.33730092
0.045298041
-0.36806991
0.034078816
-0.39785954
0.024035093
-0.42692208
0.01604903
-0.45596265
0.010279605
-0.48585054
0.0063813727
-0.51734663
0.0038267638
-0.55097695
0.002140329
-0.58705227
0.00098871798
-0.62575234
0.0001739956
-0.66720727
-0.00040924368
-0.71155095
-0.00081529974
-0.75894867
-0.0010753623
-0.80960451
-0.0012121111
-0.8637584
-0.0012460159
-0.92168194
-0.0011967194
-0.98368311
-0.0010824612
-1.0500787
-0.00091960276
-1.1212525
-0.00072128831
-1.1975606
-0.00049767255
-1.2795094
-0.00025593393
-1.3674199
-0.16421295
0.18298196
-0.16359803
-0.038093403
-0.1660625
-0.21284151
-0.16626472
-0.2886684
-0.16321298
-0.28312082
-0.1579394
-0.16224146
-0.15513502
0.056742217
-0.15841341
0.19917916