/*--------------------------------*- C++ -*----------------------------------*\
  =========                 |
  \\      /  F ield         | OpenFOAM: The Open Source CFD Toolbox
   \\    /   O peration     | Website:  https://openfoam.org
    \\  /    A nd           | Version:  8
     \\/     M anipulation  |
\*---------------------------------------------------------------------------*/
FoamFile
{
    version     2.0;
    format      ascii;
    class       volScalarField;
    location    "200.966377299857271";
    object      pMean;
}
// * * * * * * * * * * * * * * * * * * * * * * * * * * * * * * * * * * * * * //

dimensions      [0 2 -2 0 0 0 0];

internalField   nonuniform List<scalar> 
9200
(
-0.00014005117
-0.00012514141
-0.00028413971
-0.00010547123
-0.000250742
-0.00049980213
-7.5680134e-05
-0.00020344716
-0.00044828657
-0.0007248856
-3.554291e-05
-0.00013489122
-0.00037074672
-0.00065940355
-0.00099341643
1.220371e-05
-4.540196e-05
-0.00026006832
-0.00055683149
-0.00091631822
-0.0012941702
7.0703745e-05
5.8530581e-05
-0.00011715226
-0.00041207981
-0.0007915055
-0.001209078
-0.0016338971
0.0001363331
0.00018028496
4.838162e-05
-0.00022380186
-0.0006169618
-0.0010670192
-0.0015439208
-0.0020072839
0.00020768196
0.0003163871
0.00024244379
-3.9106818e-06
-0.00038945119
-0.00087012362
-0.0013886979
-0.0019159941
-0.0024136322
0.00028527588
0.00046807349
0.00046198274
0.00025218689
-0.00012366082
-0.00061178907
-0.0011752923
-0.0017525908
-0.0023246127
-0.0028470854
0.00037451716
0.00063518293
0.00070698784
0.00053757457
0.0001843153
-0.00030945593
-0.00089339853
-0.0015299603
-0.0021581129
-0.0027640146
-0.0033039716
0.00047619448
0.00081598379
0.00097144442
0.00085034343
0.00052631218
4.0992037e-05
-0.0005626597
-0.0012329729
-0.0019333647
-0.0025997836
-0.0032304988
-0.0037773764
0.00058693227
0.0010080329
0.0012498984
0.0011838503
0.00089939992
0.00043004628
-0.0001781462
-0.00088304965
-0.0016294916
-0.0023805657
-0.0030740933
-0.00371713
-0.0042621115
0.00070163408
0.0012081029
0.0015394095
0.0015331069
0.0012960834
0.00085385846
0.00024917916
-0.00047358797
-0.001269493
-0.0020788108
-0.0028681837
-0.0035741723
-0.0042186756
-0.0047508372
0.00081509525
0.0014061391
0.0018340749
0.0018924461
0.0017090795
0.0013037102
0.00071573093
-1.6404235e-05
-0.0008445397
-0.0017186316
-0.0025778305
-0.0033895869
-0.0040948222
-0.0047276383
-0.0052379682
0.0009128974
0.0015989017
0.0021192976
0.0022553124
0.0021310484
0.001770758
0.0012122668
0.00048542079
-0.00036628393
-0.0012886493
-0.0022278514
-0.0031202881
-0.0039395436
-0.0046284269
-0.0052381696
-0.0057165499
0.00096802971
0.0017739059
0.0023876106
0.0026067627
0.0025531322
0.0022461388
0.0017289178
0.0010219854
0.00016241376
-0.0007995067
-0.0018037773
-0.002791578
-0.0037011831
-0.004510298
-0.0051688872
-0.0057429998
-0.006181222
0.00095563405
0.0018964333
0.0026291576
0.0029313113
0.0029595869
0.0027193482
0.0022558431
0.0015832185
0.00073159377
-0.00025367105
-0.0013151548
-0.0023853482
-0.0034050919
-0.0043127581
-0.0050954992
-0.0057085691
-0.0062364033
-0.0066259131
0.00085701495
0.001946496
0.0028122682
0.0032182346
0.0033283339
0.0031751365
0.0027817564
0.0021591476
0.0013316867
0.00033936565
-0.0007631556
-0.0019098322
-0.0030292947
-0.0040609185
-0.0049485687
-0.0056870973
-0.00624132
-0.0067119476
-0.0070458324
0.00068246177
0.0019222357
0.0029037934
0.0034300853
0.0036449988
0.0035877597
0.0032911088
0.0027379463
0.0019527089
0.00097088222
-0.00015659174
-0.0013643191
-0.0025802838
-0.0037288145
-0.0047526638
-0.0056001465
-0.0062783451
-0.0067601202
-0.0071645161
-0.0074363633
0.00046932829
0.0018168817
0.0028787864
0.0035173932
0.003876728
0.0039386444
0.0037575495
0.0033030507
0.0025820679
0.0016309053
0.00049691822
-0.00075661217
-0.0020553369
-0.0033207234
-0.0044777603
-0.0054715483
-0.0062601669
-0.0068614503
-0.0072592755
-0.0075889502
-0.0077940158
0.00025459261
0.0016235586
0.0027052663
0.0034510169
0.0039687576
0.0042042778
0.0041574393
0.0038300345
0.0032039377
0.0023068548
0.0011877213
-9.2801696e-05
-0.0014603905
-0.0028314961
-0.0041256309
-0.0052672182
-0.0062098264
-0.0069199769
-0.007429916
-0.0077328837
-0.0079811559
-0.0081157705
5.2436095e-05
0.0013460867
0.0023727405
0.0032024388
0.0038829773
0.0043277346
0.0044703947
0.0042885014
0.003795049
0.00298263
0.0019035833
0.00061807002
-0.00079993271
-0.0022647805
-0.0036880777
-0.0049864091
-0.0060891756
-0.0069580619
-0.0075721295
-0.0079767887
-0.0081761363
-0.0083375214
-0.0083991033
-0.00014180461
0.001002106
0.0019048054
0.0027656013
0.0035944421
0.0042561927
0.0046423282
0.0046585533
0.0043201864
0.0036364404
0.0026283086
0.0013638842
-8.2046959e-05
-0.0016234007
-0.0031664737
-0.0046174893
-0.0058949867
-0.0069335216
-0.007707814
-0.0082085146
-0.0084962483
-0.0085845484
-0.0086554333
-0.0086419404
-0.00032989386
0.00061046895
0.0013395431
0.0021668491
0.0030909193
0.0039614135
0.0046078314
0.0048957
0.0047552059
0.0042322249
0.003340406
0.0021286906
0.00068149273
-0.00091400097
-0.0025614227
-0.0041589828
-0.0056119289
-0.0068407828
-0.007791032
-0.0084496944
-0.0088221514
-0.0089827125
-0.0089546877
-0.0089331636
-0.0088433866
-0.00050913556
0.0001907917
0.00071119089
0.0014460802
0.0023884157
0.0034195491
0.0043319251
0.0049253191
0.0050637076
0.0047378883
0.0040051784
0.0028912222
0.001474945
-0.00014757703
-0.0018779068
-0.0036090453
-0.0052352501
-0.0066608498
-0.0078138409
-0.0086510139
-0.009175407
-0.0094060926
-0.0094317893
-0.009283694
-0.0091692804
-0.0090039023
-0.00067521005
-0.00024170625
4.288829e-05
0.00063855235
0.0015281195
0.0026391488
0.0037840032
0.0046986261
0.0051707048
0.0051200867
0.0045835871
0.0036193325
0.0022773178
0.00066057785
-0.0011255861
-0.0029709273
-0.0047606168
-0.0063853336
-0.0077537467
-0.0088022828
-0.0095037823
-0.0098764266
-0.0099545969
-0.0098394999
-0.0095693119
-0.0093622941
-0.0091239121
-0.00082394761
-0.00067537512
-0.00064357341
-0.00022347913
0.00055642637
0.0016711703
0.0029677592
0.0041823948
0.0050099293
0.0053125643
0.005042089
0.0042674229
0.0030587423
0.0014900826
-0.00031853544
-0.0022519666
-0.0041888309
-0.0060070625
-0.0075986514
-0.0088778016
-0.0097950847
-0.010339083
-0.010545408
-0.010462161
-0.01020271
-0.0098103972
-0.0095117689
-0.0092036583
-0.00095207735
-0.0010999446
-0.0013301705
-0.0011094743
-0.00048287853
0.00056692797
0.0019302462
0.0033681611
0.0045442356
0.0052315212
0.0053201737
0.0047986926
0.0037705931
0.0023114597
0.00052251914
-0.001465229
-0.0035248094
-0.0055239203
-0.0073381595
-0.0088619318
-0.010020665
-0.010780146
-0.011147765
-0.011175173
-0.010924388
-0.010519085
-0.010006755
-0.0096186802
-0.0092442535
-0.0010594669
-0.001509039
-0.0020021873
-0.0019943286
-0.001553995
-0.00062464903
0.00072635837
0.0022920735
0.0037485717
0.0048292152
0.0053291303
0.0051601796
0.0043708205
0.0030779438
0.001369611
-0.00063000089
-0.0027798096
-0.0049385863
-0.0069672872
-0.0087407991
-0.010161614
-0.011168583
-0.011746379
-0.011920665
-0.011759742
-0.011337678
-0.010787019
-0.010158147
-0.009684221
-0.0092475962
-0.0011600856
-0.001900592
-0.0026469371
-0.0028577625
-0.0026256255
-0.001859023
-0.00058938491
0.0010134591
0.0026542802
0.0040716407
0.0050042977
0.0052611198
0.0048086247
0.0037402289
0.0021796054
0.00022639032
-0.0019712903
-0.0042593932
-0.0064855316
-0.0085060966
-0.010200761
-0.011482434
-0.01230848
-0.012682481
-0.012649941
-0.01229385
-0.011699735
-0.01100604
-0.010265189
-0.0097098663
-0.0092155821
-0.00125791
-0.0023041167
-0.0032565808
-0.0036826771
-0.0036712868
-0.0030974849
-0.0019652641
-0.00040635308
0.0013268415
0.0029799735
0.0043033062
0.0050191552
0.004998349
0.0042456006
0.0028943395
0.0010636441
-0.001125187
-0.0035016146
-0.0058985049
-0.0081542583
-0.010126129
-0.011701456
-0.012809381
-0.013426696
-0.013578497
-0.013328294
-0.01277352
-0.01200872
-0.011176248
-0.010329032
-0.009697407
-0.0091501095
-0.0013413797
-0.0027193681
-0.0038701992
-0.0044599782
-0.004670432
-0.0043092235
-0.0033554541
-0.0019073479
-0.00017562412
0.0016174331
0.0032306615
0.0043833854
0.0048425411
0.0045160602
0.0034610422
0.0018216726
-0.00027914083
-0.0026894126
-0.0052187816
-0.0076875967
-0.0099309338
-0.011810099
-0.013226014
-0.014126541
-0.014510822
-0.01442484
-0.01394987
-0.013195491
-0.012263655
-0.011298333
-0.010351228
-0.0096489419
-0.0090532338
-0.0014099946
-0.0031253619
-0.0044923854
-0.00523837
-0.0056102208
-0.0054684043
-0.0047227155
-0.003437142
-0.0017860352
4.4512182e-05
0.0018460626
0.0033440486
0.0042779501
0.0044446135
0.0038067844
0.0024428163
0.00050832399
-0.0018568705
-0.0044675791
-0.007115636
-0.0096137488
-0.011797858
-0.013539532
-0.014756257
-0.015418755
-0.015548704
-0.015213452
-0.014509768
-0.013557707
-0.012464412
-0.011373464
-0.010333688
-0.0095667444
-0.0089272958
-0.0014651858
-0.0035151096
-0.0050953025
-0.006026619
-0.0065415775
-0.0065567504
-0.0060358367
-0.0049522871
-0.0034445656
-0.0016656676
0.0002190184
0.0019507987
0.003276848
0.0039484779
0.0038210933
0.0028580894
0.0011734333
-0.0010597256
-0.0036763609
-0.0064562367
-0.0091810768
-0.011660019
-0.013735685
-0.015293988
-0.016274413
-0.016671026
-0.016529728
-0.015937137
-0.015004431
-0.013859047
-0.012611626
-0.011403226
-0.010278563
-0.0094532156
-0.0087747598
-0.0015085825
-0.0038807941
-0.0056678707
-0.0067900229
-0.0074821216
-0.0076329277
-0.0072722666
-0.006415963
-0.0051006791
-0.0034448748
-0.0015799173
0.00028110796
0.0018773348
0.0029854306
0.0034020432
0.002959234
0.0016479448
-0.00036648471
-0.0028957526
-0.005738106
-0.0086471292
-0.011398858
-0.013806112
-0.015722276
-0.017053068
-0.017762407
-0.017869767
-0.017444039
-0.016590344
-0.015431165
-0.01409935
-0.012706548
-0.011389644
-0.010188211
-0.0093108131
-0.0085980684
-0.0015409581
-0.004212083
-0.0061975633
-0.0075132591
-0.0083887769
-0.0087217145
-0.0084980842
-0.0078005669
-0.0067101461
-0.0052351567
-0.0034734843
-0.0015970603
0.00015980975
0.0015834261
0.002497183
0.0026301968
0.0018311282
0.00015490863
-0.0021956042
-0.0050060541
-0.0080372495
-0.011025778
-0.013749323
-0.016028674
-0.017734502
-0.018795786
-0.019203369
-0.019002242
-0.018283756
-0.017168568
-0.015788615
-0.014279175
-0.012750966
-0.011335067
-0.01006516
-0.0091420257
-0.0083996982
-0.0015638587
-0.0044980368
-0.0066695729
-0.0081790829
-0.0092435012
-0.0097715125
-0.009740644
-0.0091813492
-0.0082375049
-0.0069858451
-0.0053929962
-0.0035971998
-0.0017970505
-0.000177439
0.0011132382
0.0018007253
0.0015978525
0.00041180825
-0.0016476389
-0.0043291822
-0.0073910846
-0.010561882
-0.013572439
-0.01620773
-0.018302413
-0.019748153
-0.020501803
-0.020581274
-0.020057485
-0.019042105
-0.017668909
-0.0160763
-0.014399836
-0.012747109
-0.011242087
-0.0099120698
-0.0089493572
-0.0081820531
-0.0015815538
-0.0047306627
-0.0070698634
-0.0087676379
-0.010025092
-0.01076231
-0.010942009
-0.010583432
-0.009773228
-0.0086568246
-0.0072812866
-0.0056427231
-0.0039060382
-0.0022120581
-0.00068072596
0.00045249069
0.00085028397
0.00027434938
-0.0013358777
-0.0037813253
-0.0067718615
-0.010041146
-0.013292879
-0.016262643
-0.01874718
-0.020600181
-0.021739605
-0.022151415
-0.021881814
-0.021026002
-0.019714045
-0.018089497
-0.016294822
-0.014463213
-0.012697567
-0.011113467
-0.0097316654
-0.0087353259
-0.007947404
-0.0015958807
-0.0049043064
-0.0073858968
-0.0092593034
-0.010709827
-0.011668926
-0.012079073
-0.011948845
-0.011335623
-0.010341138
-0.009088848
-0.0076665385
-0.0060815922
-0.0044309404
-0.0027875221
-0.0013549466
-0.00044523336
-0.00037928013
-0.0013910574
-0.0034429965
-0.0062574902
-0.0095204239
-0.012940688
-0.016206548
-0.019067971
-0.021337995
-0.022894393
-0.023685235
-0.02372645
-0.023092142
-0.021900304
-0.020295898
-0.018429835
-0.016445492
-0.014471747
-0.012605192
-0.0109521
-0.009526644
-0.0085024375
-0.0076980104
-0.0050113509
-0.0016039541
-0.0076073344
-0.0096398367
-0.011275098
-0.012461933
-0.013121495
-0.01324863
-0.012868557
-0.012055272
-0.010915598
-0.0096096049
-0.0082456296
-0.0067391225
-0.0051163588
-0.0035188091
-0.0022381042
-0.0015948508
-0.0019462336
-0.0034381893
-0.0059277835
-0.0090788335
-0.012563565
-0.016065094
-0.019273491
-0.021956398
-0.02394937
-0.025157883
-0.025562895
-0.025210441
-0.024201606
-0.022674363
-0.020785661
-0.018690376
-0.016530461
-0.014428277
-0.01247304
-0.010760939
-0.0092996363
-0.0082530735
-0.0074361556
-0.0077251487
-0.0050439657
-0.0016043245
-0.0098990791
-0.011703473
-0.013113005
-0.014034153
-0.014448448
-0.014339156
-0.013749901
-0.01277453
-0.011570176
-0.010331064
-0.0090474666
-0.0075596977
-0.0059392652
-0.0044298097
-0.0033474116
-0.0030749191
-0.0039077051
-0.0058956434
-0.0087972797
-0.012237994
-0.015879027
-0.019384477
-0.022459638
-0.024894116
-0.026549418
-0.027364176
-0.027351822
-0.026588955
-0.025201404
-0.023344105
-0.02118256
-0.018872693
-0.016552425
-0.014336015
-0.0123043
-0.010542934
-0.0090532347
-0.007989352
-0.0071637787
-0.010023453
-0.0077387108
-0.005000454
-0.001599853
-0.011982116
-0.013601624
-0.014785757
-0.015506588
-0.015707457
-0.01538915
-0.014620414
-0.01355943
-0.012422402
-0.011281883
-0.010017525
-0.0085032484
-0.0069144966
-0.0055472216
-0.0047792531
-0.0049594904
-0.006307071
-0.0087780348
-0.012046529
-0.015715994
-0.019436058
-0.022863426
-0.025728275
-0.027845541
-0.029107414
-0.02948796
-0.029033608
-0.027849856
-0.026084912
-0.023907125
-0.021487223
-0.01897913
-0.016514655
-0.014198395
-0.01210223
-0.010300986
-0.0087899942
-0.0077135127
-0.0068827007
-0.012095494
-0.01000868
-0.0076485009
-0.0048852475
-0.0015946338
-0.013913187
-0.015353278
-0.016385979
-0.01692429
-0.016926251
-0.016417185
-0.015545403
-0.014537242
-0.0134996
-0.012407715
-0.011101896
-0.00957902
-0.008080428
-0.0069732963
-0.0066090231
-0.0072935298
-0.0091662226
-0.01208639
-0.015661467
-0.019486224
-0.023197884
-0.026463113
-0.029040592
-0.030774982
-0.031593666
-0.031506193
-0.030591938
-0.028983288
-0.026847432
-0.02436264
-0.021701339
-0.019012829
-0.016420771
-0.014019026
-0.011870071
-0.010037897
-0.0085122784
-0.0074276446
-0.0065946734
-0.014029996
-0.012039665
-0.00985508
-0.0074553788
-0.0047043322
-0.0015872221
-0.015718119
-0.017059532
-0.017946054
-0.018304916
-0.018112848
-0.01748791
-0.016655114
-0.015745521
-0.014767676
-0.013648756
-0.012303257
-0.010830326
-0.0095407701
-0.0087864758
-0.008889345
-0.010106381
-0.012493747
-0.015808794
-0.019617757
-0.023511571
-0.027122589
-0.030140671
-0.032356618
-0.033647708
-0.033980068
-0.033398261
-0.032013301
-0.029981773
-0.027486322
-0.024711333
-0.021827684
-0.018977489
-0.016274716
-0.013801558
-0.011611008
-0.0097563381
-0.0082223435
-0.007133673
-0.0063012717
-0.015858735
-0.013947092
-0.0118166
-0.0095668339
-0.0071687852
-0.0044676927
-0.0015705023
-0.017505915
-0.018742331
-0.019474741
-0.01964224
-0.019329409
-0.018734167
-0.017995104
-0.017158112
-0.016140265
-0.014982802
-0.013667073
-0.012366158
-0.011383923
-0.011056179
-0.011667231
-0.013419989
-0.0162849
-0.019922723
-0.023880658
-0.02774802
-0.0311645
-0.033852492
-0.035636273
-0.036430978
-0.03624094
-0.035146076
-0.033286568
-0.030840096
-0.028000715
-0.024955261
-0.021869875
-0.018877325
-0.016080561
-0.013549642
-0.011328224
-0.0094590092
-0.0079223479
-0.0068333218
-0.0060039017
-0.017699987
-0.015769826
-0.013668285
-0.011433528
-0.0091598037
-0.0068009197
-0.0041849498
-0.0015405117
-0.019288884
-0.020398406
-0.020947368
-0.020995635
-0.020710842
-0.020205508
-0.019547404
-0.018669413
-0.017596674
-0.016472446
-0.015309411
-0.014281729
-0.013687649
-0.013837002
-0.014972748
-0.017243047
-0.020519185
-0.024394835
-0.028405824
-0.032146538
-0.035275572
-0.037553842
-0.038841142
-0.039093736
-0.038353533
-0.036734626
-0.034403579
-0.031555396
-0.028391586
-0.025097662
-0.021832245
-0.018716804
-0.015842465
-0.013266971
-0.011024877
-0.0091484793
-0.007614198
-0.0065280536
-0.0057038947
-0.019555979
-0.017635258
-0.015457414
-0.013203198
-0.010911602
-0.008648649
-0.0063628928
-0.00386108
-0.0014962481
-0.021048312
-0.021985428
-0.022421292
-0.022501679
-0.022309602
-0.021895943
-0.021206841
-0.020252783
-0.019206907
-0.018237705
-0.017331948
-0.016664284
-0.016512104
-0.017159037
-0.018815185
-0.02155802
-0.025165509
-0.029182899
-0.033142751
-0.036654509
-0.039407049
-0.041200531
-0.041935176
-0.041607803
-0.040298164
-0.038151812
-0.035358635
-0.032126888
-0.028661408
-0.025142751
-0.02171954
-0.018500581
-0.015564744
-0.012957371
-0.010704044
-0.0088268934
-0.0072994021
-0.0062192519
-0.0054026174
-0.021392475
-0.019535013
-0.017316868
-0.014932368
-0.012577369
-0.010269673
-0.0080484392
-0.0058656104
-0.0035031956
-0.0014351531
-0.022725315
-0.023558868
-0.024032452
-0.024213698
-0.024129391
-0.023705436
-0.022916354
-0.021971176
-0.021092992
-0.020397775
-0.019828922
-0.019579731
-0.019890072
-0.02103082
-0.023180391
-0.026340635
-0.030182816
-0.034234416
-0.038036021
-0.041218087
-0.043509825
-0.044750628
-0.044884803
-0.043948404
-0.042058214
-0.039388655
-0.036148761
-0.03255585
-0.028814001
-0.025095434
-0.021536879
-0.018233649
-0.015251991
-0.012624558
-0.010368139
-0.0084957734
-0.0069795363
-0.005908753
-0.005101362
-0.023132623
-0.021420272
-0.019229736
-0.016757032
-0.014224234
-0.011812753
-0.0095254044
-0.007375619
-0.0053221395
-0.0031203521
-0.0013571231
-0.024372584
-0.025250505
-0.025834325
-0.026142136
-0.026079332
-0.025554474
-0.024756494
-0.023939643
-0.02337042
-0.023028236
-0.022863667
-0.023063896
-0.023837683
-0.025457832
-0.028061762
-0.031548937
-0.035519977
-0.03949186
-0.043025863
-0.045783645
-0.047535663
-0.048165256
-0.047659337
-0.046094267
-0.043620677
-0.040439042
-0.036773362
-0.03284531
-0.028854119
-0.024961197
-0.021289969
-0.017921535
-0.014908665
-0.012271248
-0.010018713
-0.0081570804
-0.0066573382
-0.0055986048
-0.0048006151
-0.024827213
-0.023195354
-0.021132175
-0.018651966
-0.015986824
-0.013358087
-0.010931069
-0.0086993804
-0.0066483274
-0.0047445637
-0.0027202655
-0.001272598
-0.026116029
-0.027113594
-0.027841987
-0.028209972
-0.028067774
-0.027527114
-0.026832394
-0.026290275
-0.026118878
-0.02621642
-0.026484094
-0.027139837
-0.028366305
-0.030439832
-0.033425144
-0.037131238
-0.041114867
-0.044892242
-0.048053071
-0.050297465
-0.051439311
-0.051408172
-0.050232133
-0.04802744
-0.044976
-0.0413
-0.037234002
-0.032999532
-0.028787395
-0.024746395
-0.020985302
-0.017569506
-0.014537779
-0.011899012
-0.0096583512
-0.007815177
-0.0063358111
-0.0052885268
-0.004485182
-0.026592054
-0.024910026
-0.02290975
-0.020537783
-0.017833839
-0.015034768
-0.012358305
-0.0099582242
-0.0078147574
-0.0058827402
-0.0041436097
-0.0023252661
-0.0011766626
-0.028009114
-0.029166857
-0.029994582
-0.030321368
-0.030175037
-0.029729841
-0.029282084
-0.029096282
-0.029426361
-0.030010472
-0.03072056
-0.03181867
-0.033473361
-0.035937802
-0.039214789
-0.043026035
-0.046901508
-0.050370542
-0.053058774
-0.054707926
-0.055179462
-0.05444664
-0.052580426
-0.049734024
-0.046117778
-0.041971103
-0.037534074
-0.033024008
-0.028620765
-0.024458504
-0.020629062
-0.017180876
-0.014140928
-0.011511356
-0.0092936156
-0.0074745735
-0.0060128843
-0.004957391
-0.004150802
-0.028485265
-0.02666658
-0.024612602
-0.022285818
-0.019669962
-0.016806031
-0.01392855
-0.011255491
-0.0089220251
-0.0068919109
-0.0050939436
-0.0035482499
-0.0019326883
-0.0010566262
-0.03007464
-0.031365517
-0.032200933
-0.032549008
-0.032513869
-0.032301003
-0.032189063
-0.03244385
-0.033347884
-0.034439078
-0.035587385
-0.037096965
-0.039122947
-0.041902289
-0.045371916
-0.049166267
-0.052811681
-0.055862879
-0.057985891
-0.058967467
-0.058717573
-0.057252446
-0.054685222
-0.051203842
-0.047042889
-0.042454015
-0.037678497
-0.032925986
-0.028362717
-0.024104695
-0.02022486
-0.016757267
-0.013722917
-0.01111776
-0.008930704
-0.0071298412
-0.0056576572
-0.0046077699
-0.0038057167
-0.030532088
-0.028528143
-0.026330165
-0.023944653
-0.02135725
-0.01856151
-0.01559901
-0.012703856
-0.01008294
-0.0078463923
-0.0059469083
-0.0043191021
-0.0029521313
-0.0015156774
-0.00091198147
-0.032283251
-0.033630619
-0.034523157
-0.035016076
-0.035220704
-0.035332398
-0.035627719
-0.036408426
-0.037907399
-0.039519706
-0.041076181
-0.042948364
-0.045274492
-0.04828907
-0.051824496
-0.055478874
-0.058774595
-0.06130637
-0.062779943
-0.0630326
-0.06201912
-0.059801191
-0.056531813
-0.052430129
-0.047750745
-0.042752618
-0.037674602
-0.032714842
-0.028021346
-0.023688832
-0.01977434
-0.016305176
-0.013296884
-0.010726261
-0.008559641
-0.0067325457
-0.0052866089
-0.0042454247
-0.003450753
-0.032717932
-0.030524215
-0.028130819
-0.025593239
-0.022941272
-0.020158361
-0.017245719
-0.0142533
-0.011398749
-0.0088675487
-0.0067505096
-0.0050196006
-0.0035511924
-0.0023152109
-0.0010765156
-0.00074651887
-0.034573962
-0.036014622
-0.037097395
-0.037856592
-0.038395424
-0.038897532
-0.039679434
-0.041015937
-0.043135437
-0.045254641
-0.047163594
-0.049326807
-0.051880961
-0.055027175
-0.05849871
-0.061888768
-0.064722947
-0.066640792
-0.067391696
-0.066863189
-0.065054692
-0.062073027
-0.058109151
-0.053409343
-0.048243288
-0.042873799
-0.037532412
-0.03239965
-0.027600656
-0.023212572
-0.019286056
-0.015842191
-0.012872908
-0.010320976
-0.00810928
-0.0063205212
-0.0049000261
-0.0038724643
-0.0030858576
-0.035002764
-0.032655431
-0.030048688
-0.027304896
-0.024493524
-0.021637261
-0.018726468
-0.015768613
-0.01281326
-0.010044407
-0.0076308722
-0.0056722487
-0.0041016977
-0.0027353444
-0.0016421766
-0.0006215004
-0.000565028
-0.036990699
-0.038665945
-0.040053074
-0.041174235
-0.042112618
-0.043077786
-0.04437545
-0.046289319
-0.049020787
-0.051623715
-0.053801111
-0.056178448
-0.058870725
-0.062032902
-0.065317496
-0.068320221
-0.070590762
-0.071809746
-0.071776147
-0.070423436
-0.067798878
-0.064052355
-0.059409659
-0.05414078
-0.048526357
-0.042828008
-0.037261696
-0.031984358
-0.027102236
-0.022686904
-0.018782993
-0.015380625
-0.012427626
-0.0098014037
-0.0076452401
-0.0058895057
-0.0045026165
-0.0034883252
-0.0027116084
-0.037424857
-0.034899361
-0.032097679
-0.029119316
-0.0260911
-0.023066345
-0.020075113
-0.017113218
-0.014181577
-0.011314291
-0.0086658012
-0.0064094428
-0.0046044084
-0.0031283617
-0.0018807795
-0.0009433453
-0.00015965731
-0.00037037428
-0.039688677
-0.041711529
-0.043497949
-0.045048936
-0.046451662
-0.047909508
-0.049738226
-0.052237975
-0.055559677
-0.058581622
-0.060936138
-0.063437979
-0.066172843
-0.069222958
-0.072200095
-0.074702821
-0.076317113
-0.076763522
-0.075892187
-0.073682463
-0.070230265
-0.065726586
-0.060429392
-0.054628422
-0.048610288
-0.042625422
-0.036866152
-0.031470223
-0.026539935
-0.02214122
-0.018280016
-0.014887995
-0.011823583
-0.0092686369
-0.0071577022
-0.0054483921
-0.0040932333
-0.0030941609
-0.0023282236
-0.040141487
-0.037300337
-0.034271148
-0.031060915
-0.027778255
-0.024526475
-0.021360117
-0.018314333
-0.015378409
-0.012525865
-0.0097813031
-0.0073008154
-0.0051931816
-0.0034768637
-0.0021130312
-0.0010040591
-0.00023482266
0.00029417137
-0.00016356276
-0.042796633
-0.045260246
-0.047517429
-0.049555829
-0.051453832
-0.053413362
-0.055792353
-0.058845244
-0.062702035
-0.066063637
-0.06850073
-0.071048004
-0.073705203
-0.076515017
-0.079068886
-0.080972411
-0.08184609
-0.081456993
-0.079702998
-0.076613703
-0.072331302
-0.06708737
-0.061169653
-0.05488182
-0.048505461
-0.042269044
-0.036346448
-0.030874381
-0.025950726
-0.021593319
-0.017733477
-0.014181463
-0.011205911
-0.0087066984
-0.0066613323
-0.0049946704
-0.0036734092
-0.0026900422
-0.0019362314
-0.043285113
-0.040009707
-0.036622847
-0.033136958
-0.029590571
-0.026065701
-0.022664368
-0.01944128
-0.016423533
-0.013570079
-0.010826161
-0.0082640099
-0.0059295453
-0.0039104847
-0.0023076001
-0.0010769816
-0.00012586163
0.00046147115
0.00071833768
5.2155377e-05
-0.046422573
-0.049400855
-0.052183078
-0.054737062
-0.057134749
-0.059616585
-0.062523778
-0.066077291
-0.070397298
-0.074011449
-0.076435535
-0.078913961
-0.081373847
-0.083828135
-0.085854899
-0.087068481
-0.087127921
-0.085848303
-0.083176317
-0.079193183
-0.074088165
-0.068132771
-0.061638401
-0.054910771
-0.048213479
-0.041758425
-0.035723368
-0.030242743
-0.025355824
-0.02098607
-0.01690455
-0.013460197
-0.010552233
-0.0081378683
-0.0061519243
-0.0045304599
-0.0032432419
-0.0022768594
-0.0015360103
-0.046961472
-0.043162557
-0.039294552
-0.035413709
-0.031547701
-0.027730654
-0.024041632
-0.020580136
-0.017388111
-0.01445614
-0.011717618
-0.0091557112
-0.0067315581
-0.0044850208
-0.0025842684
-0.0011226609
-4.7266711e-05
0.0007263314
0.0011177935
0.0010922041
0.00027598573
-0.050660937
-0.054202315
-0.057531259
-0.060604063
-0.063524267
-0.066516415
-0.069898914
-0.073875634
-0.078569665
-0.082340655
-0.084625733
-0.086934952
-0.08908918
-0.091088967
-0.092495442
-0.092937184
-0.092117411
-0.089898791
-0.086282378
-0.081401158
-0.075494353
-0.068868259
-0.061844031
-0.054714857
-0.047732069
-0.041118349
-0.035053278
-0.029600514
-0.024681753
-0.020012522
-0.016058511
-0.012694505
-0.0098944558
-0.007556013
-0.0056322813
-0.0040558784
-0.0028038213
-0.001855045
-0.001128041
-0.05127748
-0.046868887
-0.042431491
-0.03802421
-0.033725085
-0.029551367
-0.025547254
-0.021791078
-0.018362993
-0.015262023
-0.012448563
-0.009895962
-0.007458788
-0.0051174567
-0.0029950036
-0.0012473683
4.5732361e-05
0.00094174481
0.0015189459
0.001705223
0.0014013902
0.00049671043
-0.05557866
-0.059692756
-0.063569609
-0.067188757
-0.07062999
-0.074083403
-0.077865805
-0.08219575
-0.087140246
-0.090921817
-0.09297921
-0.095031123
-0.096777438
-0.098237217
-0.098934127
-0.098530013
-0.096771149
-0.093573243
-0.088994627
-0.083225907
-0.076552677
-0.069300059
-0.061782812
-0.05428904
-0.047090163
-0.040417461
-0.034366016
-0.028854428
-0.023538522
-0.019018322
-0.015158026
-0.011928567
-0.0092240567
-0.0069645198
-0.0051026621
-0.0035720875
-0.0023557084
-0.0014253714
-0.00071269764
-0.056295904
-0.051238713
-0.046143281
-0.041115871
-0.036249796
-0.031608163
-0.027220541
-0.023136068
-0.019415503
-0.016081993
-0.013106583
-0.010485954
-0.008053125
-0.0056779275
-0.003455863
-0.0014988416
6.0934436e-05
0.0011574777
0.0018515693
0.0022216064
0.0021937618
0.001628215
0.0006836204
-0.061192571
-0.065872594
-0.070329672
-0.074509965
-0.078426537
-0.082265616
-0.086374357
-0.090952846
-0.095987232
-0.099655323
-0.10142696
-0.10312314
-0.10438051
-0.10521467
-0.10511975
-0.10380043
-0.10104727
-0.096838309
-0.091295286
-0.084666313
-0.077265927
-0.069419626
-0.06144581
-0.053666524
-0.046370804
-0.039691024
-0.03354439
-0.027513841
-0.022369537
-0.017957448
-0.014262514
-0.011150699
-0.0085450895
-0.0063636192
-0.0045642378
-0.0030798641
-0.001899777
-0.00098808
-0.00029067358
-0.062012385
-0.056329567
-0.050538571
-0.044808155
-0.039268753
-0.034023437
-0.029144023
-0.024661531
-0.020610184
-0.016991331
-0.013791958
-0.010998922
-0.0084956175
-0.0061173801
-0.0038520782
-0.0017934242
-4.3022509e-05
0.0012937824
0.0021695247
0.0026466362
0.0027992544
0.0025512627
0.0017650271
0.00080340102
-0.067488702
-0.072772727
-0.077841346
-0.082545916
-0.086866711
-0.091015777
-0.095359152
-0.10004092
-0.10497564
-0.10846648
-0.10988113
-0.11114163
-0.11184945
-0.11197135
-0.11100472
-0.10870063
-0.10490633
-0.099669273
-0.093178424
-0.085721036
-0.077619254
-0.069212212
-0.060870608
-0.052946982
-0.045615764
-0.038792894
-0.031975812
-0.02614071
-0.021119172
-0.016908363
-0.013356211
-0.010365795
-0.0078576216
-0.0057545955
-0.0040180029
-0.0025800131
-0.001435953
-0.00054408395
0.00013755174
-0.068397477
-0.062114187
-0.055664939
-0.049200516
-0.042907545
-0.036943691
-0.031436626
-0.02645193
-0.022000813
-0.018054337
-0.014571066
-0.01153607
-0.0088716694
-0.0064184594
-0.0041411742
-0.0020330552
-0.00018592344
0.0013179658
0.0024041041
0.0030403173
0.0032918212
0.0032170201
0.0027512259
0.0018200027
0.00083951933
-0.074492081
-0.080431189
-0.086090154
-0.091250854
-0.09590648
-0.10027479
-0.10470222
-0.10930671
-0.11398624
-0.11723958
-0.11827037
-0.11904528
-0.11913554
-0.11845569
-0.11653773
-0.11318452
-0.10831655
-0.10205513
-0.094637881
-0.08636721
-0.077589954
-0.068719721
-0.060176041
-0.052179683
-0.044643906
-0.036963038
-0.030365908
-0.024668298
-0.019889422
-0.015850042
-0.012445029
-0.0095736264
-0.0071630802
-0.0051385603
-0.0034645466
-0.0020719416
-0.00096585399
-9.4090821e-05
0.00057141162
-0.075469923
-0.068546711
-0.061477541
-0.054332678
-0.04726215
-0.040496461
-0.034242913
-0.028622841
-0.023672588
-0.019334002
-0.015527117
-0.01218698
-0.0092790099
-0.0066607966
-0.0043090803
-0.002185305
-0.00028608552
0.0013049584
0.0025298648
0.0033466877
0.0037301094
0.0037478231
0.003453172
0.0027985961
0.0017969783
0.00080782014
-0.082249275
-0.088837315
-0.095029717
-0.10058538
-0.10549036
-0.10993274
-0.11424266
-0.11859283
-0.12293811
-0.12597199
-0.12657095
-0.12679829
-0.12618376
-0.12461402
-0.12166561
-0.11721438
-0.11126147
-0.10398363
-0.095640834
-0.086571927
-0.077223422
-0.068083056
-0.05942023
-0.05114113
-0.04251695
-0.035080774
-0.028634972
-0.023227718
-0.018652518
-0.014789676
-0.011528283
-0.00877574
-0.0064626491
-0.0045158053
-0.0029025061
-0.001557909
-0.00049029184
0.00036101047
0.0010103805
-0.083284193
-0.075648554
-0.067914156
-0.06013364
-0.052355971
-0.044769503
-0.037689294
-0.031315831
-0.025738021
-0.020908838
-0.016712206
-0.013025014
-0.0098111524
-0.0069446372
-0.0044311889
-0.0022383587
-0.0003229737
0.0013191305
0.0026175094
0.0035454892
0.0040744703
0.0041990793
0.0039956364
0.0035115586
0.0027251635
0.0016962829
0.00073197648
-0.090751707
-0.097954602
-0.10463186
-0.11050151
-0.11551632
-0.11982837
-0.12380375
-0.12779556
-0.13182012
-0.13465804
-0.13474337
-0.13436216
-0.13294007
-0.13038926
-0.12634407
-0.12076712
-0.11372218
-0.10541037
-0.096141604
-0.086382919
-0.076686133
-0.067370873
-0.058328687
-0.048679491
-0.040323777
-0.033050926
-0.026949962
-0.021782556
-0.017417226
-0.013725923
-0.010607584
-0.0079733381
-0.0057562873
-0.0038839295
-0.0023351749
-0.001038873
-1.0360092e-05