/*--------------------------------*- C++ -*----------------------------------*\
  =========                 |
  \\      /  F ield         | OpenFOAM: The Open Source CFD Toolbox
   \\    /   O peration     | Website:  https://openfoam.org
    \\  /    A nd           | Version:  8
     \\/     M anipulation  |
\*---------------------------------------------------------------------------*/
FoamFile
{
    version     2.0;
    format      ascii;
    class       volScalarField;
    location    "200.966377299857271";
    object      pPrime2Mean;
}
// * * * * * * * * * * * * * * * * * * * * * * * * * * * * * * * * * * * * * //

dimensions      [0 4 -4 0 0 0 0];

internalField   nonuniform List<scalar> 
9200
(
7.0541692e-07
6.9641183e-07
4.312451e-06
6.7155061e-07
4.1979991e-06
1.1943997e-05
6.5281891e-07
3.9696257e-06
1.1625187e-05
2.2786354e-05
6.3317225e-07
3.7268796e-06
1.1005992e-05
2.2138417e-05
3.7645269e-05
6.3044776e-07
3.4650114e-06
1.0323937e-05
2.0913629e-05
3.6538739e-05
5.633053e-05
6.4849786e-07
3.2515314e-06
9.5949328e-06
1.9538225e-05
3.4464223e-05
5.4612266e-05
7.9351334e-05
7.0549313e-07
3.0979385e-06
8.9765853e-06
1.8081274e-05
3.2098711e-05
5.1410524e-05
7.6848155e-05
0.00010703725
8.2595186e-07
3.0433766e-06
8.5178537e-06
1.6818384e-05
2.9583752e-05
4.7721096e-05
7.2201713e-05
0.00010354892
0.00013997339
1.0682344e-06
3.1151433e-06
8.3131206e-06
1.5834417e-05
2.7343096e-05
4.3790381e-05
6.6806486e-05
9.7094839e-05
0.00013526931
0.00017876042
1.5327639e-06
3.3543065e-06
8.4222262e-06
1.52634e-05
2.5511647e-05
4.0224229e-05
6.1049565e-05
8.9556009e-05
0.00012659251
0.0001725756
0.00022415281
2.373517e-06
3.8014221e-06
8.9142469e-06
1.5180573e-05
2.4271868e-05
3.7223821e-05
5.5763239e-05
8.1510248e-05
0.0001164093
0.00016120171
0.00021618583
0.00027693379
3.8018685e-06
4.5238604e-06
9.8803065e-06
1.5663438e-05
2.3702515e-05
3.5026488e-05
5.1239269e-05
7.4073122e-05
0.00010555066
0.00014779806
0.00020157633
0.00026684382
0.00033800939
6.0805527e-06
5.6096302e-06
1.1479097e-05
1.6818146e-05
2.3871319e-05
3.3705737e-05
4.7782941e-05
6.7659985e-05
9.5474582e-05
0.00013352203
0.00018429057
0.00024839115
0.00032541697
0.00040829876
9.5946886e-06
7.146679e-06
1.3928184e-05
1.8810418e-05
2.4851266e-05
3.3304606e-05
4.5474188e-05
6.2669775e-05
8.6766624e-05
0.00012024662
0.00016589948
0.00022646847
0.00030244689
0.00039278775
0.00048880974
1.4592795e-05
9.4000759e-06
1.7481567e-05
2.1885094e-05
2.6768964e-05
3.3839566e-05
4.4331535e-05
5.9201654e-05
7.995452e-05
0.00010878311
0.00014877237
0.00020315896
0.00027503878
0.00036455999
0.00046993352
0.00058053848
2.0923483e-05
1.2856367e-05
2.262387e-05
2.6341546e-05
2.9820773e-05
3.5372113e-05
4.4302887e-05
5.7246674e-05
7.5177678e-05
9.9830619e-05
0.00013401259
0.00018141779
0.0002458943
0.00033071962
0.00043565158
0.00055782554
0.00068452082
2.8231503e-05
1.8109369e-05
3.0161312e-05
3.2655924e-05
3.4271827e-05
3.802398e-05
4.537174e-05
5.6687088e-05
7.2401823e-05
9.3590078e-05
0.00012253911
0.0001627213
0.00021865567
0.00029470244
0.00039434422
0.00051664608
0.00065748739
0.00080174958
3.6007552e-05
2.5952875e-05
4.0932753e-05
4.1672135e-05
4.0516317e-05
4.1994397e-05
4.757151e-05
5.7430106e-05
7.1450832e-05
9.0005969e-05
0.00011463816
0.00014826372
0.00019526158
0.0002609463
0.00035030244
0.00046675641
0.00060853961
0.00076990806
0.00093319356
4.369816e-05
3.7202871e-05
5.5982837e-05
5.428716e-05
4.9349983e-05
4.7582202e-05
5.1003437e-05
5.9417503e-05
7.2151299e-05
8.8852434e-05
0.00011025412
0.00013844596
0.00017724854
0.00023195301
0.00030887077
0.0004134213
0.00054889244
0.00071230982
0.0008960706
0.001079744
5.0955558e-05
5.2731614e-05
7.6749943e-05
7.1605681e-05
6.1789694e-05
5.5452648e-05
5.5865584e-05
6.266069e-05
7.4344593e-05
8.9865012e-05
0.00010910696
0.00013324267
0.00016518062
0.00020968603
0.00027322498
0.00036300761
0.00048489957
0.0006416895
0.0008289564
0.0010368925
0.0012422099
5.77207e-05
7.3047191e-05
0.00010443245
9.5252724e-05
7.9094361e-05
6.6625271e-05
6.2671259e-05
6.7271451e-05
7.7952258e-05
9.2774762e-05
0.00011082832
0.00013231439
0.00015909361
0.00019494078
0.00024585586
0.00031948891
0.00042406393
0.00056559339
0.00074614158
0.00095943314
0.0011932245
0.0014212881
6.3962773e-05
9.7507831e-05
0.00013955092
0.00012690978
0.00010304794
8.236447e-05
7.242225e-05
7.3601908e-05
8.3004415e-05
9.7392056e-05
0.00011501911
0.00013517064
0.0001585924
0.000187845
0.00022788069
0.00028599764
0.00037128443
0.00049276072
0.00065644799
0.0008632237
0.0011046611
0.0013658144
0.001617539
6.9608392e-05
0.00012436427
0.00018103547
0.00016729397
0.0001356488
0.00010456336
8.6409774e-05
8.2641867e-05
8.967358e-05
0.00010365135
0.00012134868
0.00014125476
0.00016304269
0.00018797031
0.00021957338
0.00026408347
0.00033046237
0.00042915226
0.00056994191
0.00075841938
0.00099392246
0.0012654839
0.0015552938
0.0018313577
7.4430741e-05
0.00015142467
0.00022646332
0.00021548946
0.00017821301
0.00013559957
0.00010654971
9.5698936e-05
9.8844042e-05
0.00011156818
0.00012961578
0.00015005506
0.00017169318
0.00019451804
0.00022049839
0.00025425024
0.00030371098
0.00037957879
0.00049377506
0.0006564828
0.00087252201
0.0011391753
0.0014426511
0.0017621586
0.0020629732
7.8113846e-05
0.00017638094
0.00027269283
0.00026912075
0.00023062466
0.00017774984
0.00013558441
0.00011465404
0.00011190213
0.00012179452
0.000139701
0.00016119641
0.00018381076
0.00020650857
0.00022969626
0.00025609163
0.00029187596
0.00034686711
0.00043381382
0.00056586922
0.00075336103
0.00099975695
0.0012998679
0.0016367893
0.001986752
0.0023124664
8.0369858e-05
0.00019739187
0.00031626992
0.00032466795
0.000291119
0.00023202834
0.00017662029
0.000142498
0.00013065127
0.00013572659
0.0001519448
0.00017441553
0.0001987929
0.00022293766
0.00024592257
0.00026852035
0.00029465619
0.00033234621
0.00039376313
0.00049365652
0.00064629683
0.0008615823
0.0011411332
0.001476803
0.0018483894
0.0022292298
0.0025797462
8.1064084e-05
0.00021325646
0.00035401185
0.00037822821
0.00035610826
0.00029701655
0.00023165421
0.00018296935
0.00015812775
0.00015513767
0.00016764396
0.00018970484
0.00021619834
0.00024292466
0.00026786466
0.00029001209
0.00031087982
0.00033593033
0.00037560255
0.00044460383
0.00055976221
0.00073597811
0.00098222202
0.0012976197
0.0016706904
0.0020777966
0.0024895681
0.0028645193
8.0237488e-05
0.00022342038
0.00038350068
0.00042605059
0.00042106544
0.0003694626
0.00030012136
0.00023909821
0.00019848681
0.00018293536
0.00018859957
0.0002081419
0.00023569934
0.0002657626
0.0002942756
0.00031888347
0.00033876825
0.00035643241
0.00037961788
0.00042153241
0.00049974979
0.00063285746
0.00083596655
0.0011163644
0.0014701366
0.00188211
0.0023252136
0.0027676001
0.0031663255
7.7928082e-05
0.00022810669
0.0004034819
0.00046517556
0.00048168563
0.0004447504
0.0003794584
0.00031155611
0.00025604406
0.00022361938
0.00021743462
0.00023149845
0.00025799378
0.00029085648
0.00032411637
0.00035348332
0.00037622401
0.00039187336
0.00040472331
0.00042528523
0.0004701284
0.00055962575
0.00071385909
0.00094737743
0.0012651142
0.0016595112
0.0021114869
0.0025906495
0.0030629797
0.0034845623
7.3049888e-05
0.00022814311
0.00041421658
0.00049388603
0.00053411583
0.00051789475
0.00046507989
0.00039830767
0.00033268928
0.00028236974
0.0002587749
0.00026217894
0.00028475031
0.00031839909
0.00035650223
0.00039233192
0.00042113313
0.00043975437
0.00044880741
0.00045504319
0.00047252466
0.00052141963
0.0006248706
0.00080378405
0.0010714219
0.0014295376
0.0018664704
0.0023590997
0.0028739395
0.0033751924
0.0038184775
6.6814791e-05
0.00022081473
0.00041698665
0.00051239951
0.00057579018
0.00058414251
0.00055145972
0.00049500615
0.00042672632
0.00036244008
0.00031848716
0.00030479399
0.00031825681
0.00034984295
0.00039103044
0.0004341701
0.00047150097
0.00049743174
0.00050903203
0.00050867855
0.00050659766
0.00052089874
0.00057563392
0.00069626391
0.00090382956
0.0012093363
0.001610656
0.0020916067
0.0026250567
0.0031747491
0.0037035672
0.0041671757
5.9639889e-05
0.00020943063
0.00040562229
0.00052220605
0.00060663359
0.0006400955
0.00063288075
0.00059544541
0.00053440544
0.00046317162
0.0004014315
0.00036572598
0.00036289465
0.00038740704
0.00042877925
0.00047801008
0.00052558466
0.00056233233
0.0005821941
0.00058309228
0.00057037421
0.00055844724
0.00057011133
0.00063315242
0.00077483137
0.00101529
0.0013623922
0.0018093927
0.0023353585
0.002909284
0.003492575
0.0040472928
0.0045296462
5.1867398e-05
0.00019298019
0.00038894911
0.000514186
0.00062815407
0.00068523011
0.00070492702
0.0006930469
0.00064930528
0.0005814086
0.00050848777
0.00045113591
0.00042533377
0.00043513218
0.00047186333
0.00052429188
0.00058181739
0.00063214612
0.00066509167
0.00067458619
0.0006606118
0.00063248149
0.00060970451
0.00061999556
0.00069464466
0.00086177013
0.0011395967
0.0015318301
0.0020265616
0.0025979917
0.0032115286
0.0038267538
0.0044054312
0.0049047902
4.3957351e-05
0.00017255893
0.00036320655
0.00050256703
0.00062703899
0.0007209018
0.00076652949
0.00078227114
0.00076386537
0.0007107804
0.00063687752
0.00056388274
0.00051312854
0.0005001259
0.00052392293
0.00057485977
0.00063977037
0.00070466879
0.00075472855
0.00077926029
0.0007732109
0.0007397978
0.00069349614
0.00065953143
0.00067067225
0.00076102025
0.00095851417
0.0012782311
0.001718845
0.0022628249
0.0028795873
0.003531362
0.004176477
0.0047769363
0.0052914358
3.6414059e-05
0.000149693
0.00033043548
0.00047889879
0.00062497604
0.00072945219
0.00081894945
0.00086158482
0.00087136344
0.00084284404
0.00078079018
0.00070184572
0.00063131068
0.00059113963
0.00059217926
0.00063292889
0.00070075422
0.00077848497
0.00084824524
0.0008933491
0.00090359934
0.00087600653
0.00081856189
0.00075183064
0.00070732672
0.00072254524
0.0008335141
0.0010666557
0.0014327273
0.0019245252
0.0025186765
0.0031800355
0.0038681849
0.004540807
0.0051606724
0.0056883542
2.9757002e-05
0.00012614155
0.00029336851
0.00044554891
0.00060768773
0.00074067755
0.00083902159
0.00093217814
0.00096959567
0.0009696779
0.0009311265
0.000860224
0.00077943954
0.00071533178
0.00068605936
0.00070526133
0.00076749754
0.00085411146
0.0009431848
0.0010132657
0.0010471519
0.0010359583
0.00098042767
0.00089456132
0.0008060318
0.00075276104
0.00077641127
0.00091363554
0.0011879577
0.0016045882
0.0021498372
0.0027944147
0.0034990336
0.0042212387
0.0049186942
0.0055554351
0.0060942802
2.4470075e-05
0.00010388348
0.00025490285
0.0004057186
0.0005776748
0.00073381338
0.00086615868
0.00096408728
0.001059983
0.0010883645
0.0010786226
0.0010293785
0.00095300745
0.00087432472
0.00081497087
0.00080182548
0.00084602422
0.00093363649
0.0010389896
0.0011354991
0.0011994545
0.0012141828
0.0011734866
0.0010834266
0.00096542036
0.00085485204
0.00079593662
0.00083344371
0.0010031955
0.0013242596
0.0017952688
0.0023955691
0.0030901372
0.0038360908
0.0045896212
0.0053089959
0.0059599719
0.0065079293
2.0914607e-05
8.4900246e-05
0.00021823766
0.00036273516
0.00053845423
0.00071143877
0.00087237057
0.0010082876
0.001104132
0.0012008888
0.001219574
0.0011989772
0.0011427123
0.0010646729
0.00098397034
0.00093415901
0.00094659176
0.0010220406
0.0011369192
0.0012581868
0.0013560395
0.0014053265
0.0013915333
0.0013125666
0.0011816976
0.0010288238
0.00089744054
0.00083740227
0.00089524703
0.0011042193
0.0014774653
0.0020060975
0.0026623201
0.0034057283
0.0041905373
0.0049723039
0.0057104963
0.0063730018
0.0069280157
1.9308513e-05
7.0993729e-05
0.00018673268
0.00032045189
0.00049360586
0.00067714348
0.00086025773
0.0010283323
0.0011666653
0.0012583692
0.0013559419
0.0013643335
0.0013370537
0.0012775787
0.0011908736
0.0011107236
0.0010819778
0.0011292182
0.0012408084
0.0013814742
0.0015134735
0.0016039727
0.0016281429
0.0015751473
0.0014490463
0.0012717924
0.0010827716
0.00093343246
0.00087826399
0.00096381418
0.0012189428
0.0016494475
0.0022382553
0.0029504618
0.0037408611
0.004561538
0.0053681517
0.0061219273
0.0067932317
0.0073532688
6.3586925e-05
1.9797876e-05
0.00016346199
0.00028303475
0.00044746853
0.00063447114
0.00083344198
0.0010272095
0.0012014665
0.001341667
0.0014289234
0.0015276192
0.0015301926
0.0015005243
0.0014279618
0.0013316177
0.0012634945
0.001268318
0.0013593902
0.0015079715
0.001670485
0.0018050299
0.0018769662
0.0018638051
0.0017602027
0.0015783414
0.0013504047
0.0011256809
0.00096307781
0.00092015933
0.001041505
0.0013497092
0.0018420081
0.0024927122
0.0032601344
0.0040949983
0.0049481083
0.005775943
0.0065419881
0.0072193708
0.007782447
0.00015079599
6.3396051e-05
2.2376534e-05
0.00025439316
0.00040503413
0.00058812583
0.00079534389
0.0010085581
0.0012120413
0.0013930795
0.0015357238
0.0016179712
0.0017248493
0.001726046
0.0016817881
0.001590023
0.0014947027
0.0014536525
0.0015058948
0.0016448846
0.0018283818
0.0020055131
0.0021313718
0.0021710832
0.0021069954
0.0019411015
0.001695787
0.0014145416
0.0011566314
0.00098730275
0.00096528594
0.0011309761
0.0014989225
0.0020567972
0.0027702056
0.0035912284
0.0044674063
0.0053491344
0.006194392
0.006969363
0.007650146
0.0082143426
0.00023756124
0.00015014242
7.0392718e-05
2.6851944e-05
0.00037114449
0.00054379091
0.00075080775
0.0009756272
0.0012021638
0.0014168595
0.0016063121
0.0017519665
0.0018354463
0.0019576469
0.0019432998
0.0018725875
0.0017702535
0.0016930556
0.0016969432
0.001804766
0.0019924629
0.0022051733
0.0023863907
0.0024891188
0.0024808857
0.0023512917
0.0021118105
0.0017968148
0.00146178
0.001175443
0.0010077704
0.0010163421
0.0012351133
0.0016689415
0.0022952697
0.0030712034
0.0039433932
0.0048571697
0.0057633946
0.0066221696
0.007402739
0.0080843218
0.0086477992
0.00034966047
0.00023439039
0.00016149976
8.3856138e-05
3.2838184e-05
0.00050707996
0.0007061729
0.00093351534
0.0011749715
0.0014168721
0.0016455974
0.0018446112
0.0019997436
0.0020918401
0.0022173879
0.0021692862
0.0020776201
0.0019833563
0.0019442822
0.0020052291
0.0021738054
0.0024073702
0.0026397896
0.0028106951
0.0028728357
0.0027993181
0.0025893931
0.0022661376
0.0018772743
0.0014904552
0.0011828071
0.0010268571
0.0010764796
0.0013569288
0.001862015
0.0025586205
0.0033958958
0.0043160388
0.0052632126
0.0061895818
0.0070579224
0.0078408196
0.0085207037
0.0090817186
0.00048258555
0.0003431303
0.0002450413
0.00018348419
0.00010240525
3.9857855e-05
0.00066789862
0.00088936159
0.0011359149
0.0013960668
0.0016573174
0.0019020443
0.0021176866
0.0022926848
0.0023805212
0.0024861286
0.0024060837
0.002313088
0.0022478927
0.0022621075
0.0023898254
0.002620806
0.0028929492
0.0031312902
0.0032736098
0.0032751324
0.0031181762
0.0028135374
0.0023980631
0.0019336952
0.0014998569
0.0011803343
0.0010476408
0.0011491998
0.001499475
0.0020801915
0.0028477543
0.0037441812
0.0047083529
0.0056843187
0.0066263265
0.0075002906
0.0082823411
0.0089581484
0.0095150633
0.00064129895
0.00047336225
0.00035190779
0.00026790546
0.00021376127
0.00012422543
4.7480552e-05
0.00085075196
0.0010931845
0.0013604608
0.0016439006
0.001927701
0.0021963371
0.0024407015
0.0026276991
0.0026786272
0.0027625178
0.0026712322
0.0025982891
0.0025796661
0.0026600861
0.0028618118
0.0031519003
0.0034500621
0.0036760337
0.0037677551
0.003686941
0.0034281752
0.003015793
0.0025020614
0.0019635357
0.0014903413
0.0011705826
0.001073821
0.0012382626
0.0016657268
0.0023252585
0.0031632474
0.0041156715
0.0051193172
0.0061191573
0.0070722199
0.0079479283
0.0087260824
0.0093955714
0.0099468618
0.00082385698
0.0006301653
0.00048001115
0.00037412975
0.00030021737
0.00024923234
0.00014723211
5.5238563e-05
0.0010557055
0.0013194861
0.0016116514
0.0019230516
0.0022383966
0.0025439391
0.0028129815
0.0029735051
0.0029822411
0.0030650319
0.0029843997
0.0029504444
0.0029937559
0.0031522785
0.0034307386
0.0037702752
0.0040767912
0.0042672996
0.0042835589
0.004097881
0.0037195311
0.0031884481
0.0025734471
0.001965409
0.0014634082
0.0011570238
0.0011096246
0.0013475396
0.0018584831
0.002598674
0.0035053345
0.0045096983
0.0055477331
0.0065663091
0.0075258338
0.0083995151
0.0091708734
0.0098319517
0.010376213
0.0010307778
0.00081313535
0.00063532857
0.00050046281
0.00040655659
0.00033816064
0.00028643384
0.00016942287
6.2646155e-05
0.0012836191
0.0015714416
0.0018945317
0.0022440451
0.0026045096
0.0029475352
0.0032021915
0.0033224864
0.0033097713
0.0034162648
0.0033640439
0.0033866117
0.00350641
0.0037517776
0.0041027789
0.0044761772
0.0047676061
0.0048954629
0.00480941
0.0044964677
0.0039823553
0.0033244358
0.002608651
0.0019392441
0.0014217758
0.0011439719
0.0011596706
0.0014809008
0.0020802698
0.002901525
0.0038739002
0.0049253356
0.0059922485
0.0070242921
0.0079857409
0.0088537677
0.0096156019
0.010266337
0.010802289
0.0012615721
0.0010236479
0.00081939409
0.00065433108
0.00053106658
0.0004446203
0.0003775249
0.00032208336
0.00018904507
6.9304064e-05
0.0015356783
0.0018545688
0.0022195453
0.0026208061
0.003031216
0.0033750727
0.0035913108
0.0036920758
0.0036840805
0.0038340201
0.0038285916
0.0039243985
0.0041336308
0.0044682249
0.0048812064
0.005265818
0.0055134586
0.0055481814
0.0053323245
0.0048706641
0.0042070683
0.0034176533
0.0026054731
0.0018863609
0.0013693159
0.001136479
0.0012288293
0.0016420714
0.0023332569
0.0032344879
0.0042684847
0.005361423
0.0064513882
0.0074915856
0.0084505277
0.00930945
0.010059225
0.010697852
0.011224331
0.0015147071
0.0012594933
0.0010349262
0.00083964193
0.00068291753
0.00056654578
0.00048336824
0.0004144363
0.0003532802
0.00020456383
7.4922165e-05
0.0018177957
0.002178773
0.0025985977
0.0030598108
0.0034889627
0.0038021806
0.004000354
0.0041052729
0.004121638
0.0043378689
0.0043961901
0.0045824239
0.004889232
0.0053092801
0.0057650796
0.0061313564
0.0063017344
0.0062110057
0.0058383037
0.0052084499
0.0043848534
0.0034633399
0.0025632455
0.0018095664
0.0013110165
0.0011401748
0.0013220528
0.0018345047
0.0026191868
0.0035978173
0.0046883006
0.0058165986
0.0069235814
0.0079666476
0.0089188108
0.0097653932
0.010500782
0.011125692
0.011641648
0.0017966955
0.0015157778
0.0012775531
0.0010605829
0.00086870814
0.00071500413
0.00060133154
0.00051839825
0.00044556633
0.00037737809
0.00021496167
7.9170977e-05
0.0021391565
0.0025536938
0.0030383031
0.0035355645
0.0039483803
0.0042486691
0.0044493145
0.0045783604
0.0046411325
0.0049454348
0.0050882234
0.0053778545
0.0057850146
0.0062781816
0.0067480889
0.0070607497
0.0071171204
0.0068681621
0.0063130097
0.0054982487
0.0045080892
0.0034583237
0.0024830317
0.0017131385
0.001252853
0.0011611085
0.001444204
0.0020612718
0.0029393237
0.0039913455
0.005132261
0.0062893263
0.0074071841
0.008447937
0.009389266
0.010220514
0.01093938
0.011549108
0.012073566
0.002115707
0.0017998712
0.0015388212
0.0013102585
0.0010939259
0.00089934529
0.00074438147
0.00063069259
0.0005460465
0.0004678053
0.00039243941
0.00022140525
8.0887449e-05
0.0025068513
0.0029849441
0.003517982
0.0040169935
0.0044274655
0.0047335529
0.0049555389
0.0051270007
0.0052633423
0.005680853
0.0059252046
0.0063260407
0.0068288477
0.0073716208
0.0078192606
0.0080382198
0.0079421214
0.0075028992
0.0067422435
0.0057294229
0.0045706368
0.0034012202
0.0023676449
0.0016027718
0.0012016258
0.0012055347
0.0015998951
0.0023249626
0.003294422
0.0044144922
0.0055990053
0.0067779237
0.007900509
0.0089339552
0.0098606545
0.010673792
0.011374161
0.011985432
0.012529613
0.0024767724
0.0021188445
0.0018270427
0.001576961
0.0013489543
0.0011259519
0.00092445624
0.00076611707
0.00065087467
0.0005627574
0.00047876567
0.00040239501
0.00022072384
8.1164816e-05
0.002924998
0.0034567031
0.0040081831
0.0045189148
0.0049449315
0.0052732709
0.0055329945
0.0057717157
0.0060102268
0.0065668283
0.0069256076
0.0074387443
0.0080217131
0.0085808685
0.0089632206
0.0090447073
0.00875795
0.0080983645
0.0071123893
0.0058926093
0.0045681309
0.0032926335
0.00222172
0.0014854639
0.0011647611
0.0012797128
0.0017933398
0.0026276141
0.0036847107
0.0048662806
0.006086929
0.0072806009
0.0084018831
0.0094232824
0.010331788
0.011124207
0.011821447
0.012444552
0.012997461
0.0028824537
0.0024759884
0.0021484006
0.0018697182
0.0016193105
0.0013824497
0.0011482721
0.00093879009
0.00077649763
0.00065805981
0.00056564956
0.00048668557
0.0003987382
0.00021554912
7.9996643e-05
0.0033824505
0.0039437432
0.0045199674
0.0050601516
0.0055156252
0.0058800533
0.0061994197
0.0065337916
0.0069051636
0.0076252613
0.0081047614
0.0087223216
0.0093585886
0.0098910377
0.010160898
0.010059562
0.0095452669
0.0086382418
0.007410843
0.0059801259
0.0044982872
0.0031352799
0.0020516769
0.001369338
0.0011500731
0.0013896974
0.0020282211
0.0029706418
0.0041098939
0.005345369
0.006594232
0.007795537
0.0089096892
0.0099145218
0.010801439
0.011587985
0.012291412
0.012917353
0.013476946
0.0033252601
0.0028728944
0.0025051361
0.0021942214
0.0019145567
0.0016523344
0.0014007929
0.0011551685
0.00093878573
0.0007715287
0.00064944662
0.00056853137
0.00047781585
0.00038740072
0.00020512539
7.7373815e-05
0.0038594316
0.0044536087
0.0050723201
0.0056536905
0.0061503895
0.0065693903
0.0069755653
0.0074375688
0.0079757252
0.0088753495
0.0094730193
0.010175893
0.010827188
0.011282895
0.011389526
0.011061217
0.01028482
0.0091068991
0.0076264262
0.0059862338
0.0043610329
0.0029340467
0.00186559
0.001263413
0.0011655256
0.001541148
0.0023075669
0.0033547989
0.0045691627
0.0058501063
0.0071190095
0.0083209196
0.0094222906
0.010406197
0.011286675
0.012075465
0.012777036
0.013403619
0.013967861
0.0037922179
0.0033054039
0.0028981266
0.0025521465
0.0022401804
0.0019454307
0.0016646456
0.0013979837
0.0011433486
0.00092033689
0.00074826711
0.00064408011
0.00055041813
0.00046083253
0.00036727639
0.00018927849
7.345259e-05
0.0043610659
0.005004905
0.0056762479
0.0063090097
0.0068619346
0.0073603852
0.0078842164
0.0085082715
0.009238273
0.010330177
0.01103407
0.011792068
0.012409799
0.012733438
0.01262541
0.012028015
0.010958279
0.0094898212
0.0077496307
0.0059073921
0.0041587429
0.0026959885
0.0016730379
0.0011773674
0.0012189722
0.0017391279
0.0026336463
0.0037801822
0.0050612592
0.0063786285
0.00765929
0.008854853
0.0099379216
0.010917218
0.011797828
0.012580752
0.013278089
0.013903047
0.014469961
0.0042864959
0.0037657573
0.0033257357
0.0029441056
0.0025975928
0.0022672306
0.0019494118
0.0016500621
0.0013712896
0.0011087239
0.00088012616
0.00073247786
0.00061380162
0.00052389637
0.00043433104
0.00033822541
0.0001685974
6.8497737e-05
0.004904664
0.0056072006
0.0063402064
0.0070366676
0.0076672521
0.0082740099
0.0089496592
0.0097679842
0.010714193
0.01199881
0.012785567
0.013556415
0.014082973
0.014218139
0.013844566
0.012939071
0.011548013
0.0097737632
0.0077730142
0.0057425139
0.0038963539
0.002430282
0.0014848794
0.0011212401
0.001317865
0.0019879237
0.0030079287
0.004246283
0.0055845688
0.006928887
0.0082129239
0.0093952563
0.01047844
0.011457705
0.012329164
0.013103629
0.013794188
0.014415277
0.014982956
0.0048238053
0.0042579077
0.0037847953
0.0033702499
0.0029871838
0.0026189642
0.0022608167
0.001920438
0.0016066981
0.0013170249
0.0010475486
0.00085194925
0.00068659702
0.00057518168
0.00048742185
0.00039803904
0.00030154578
0.00014437263
6.276098e-05
0.005498906
0.0062683692
0.0070732932
0.0078510291
0.0085853648
0.0093338025
0.01019799
0.011235578
0.012413818
0.013883214
0.014717587
0.015448294
0.01582052
0.015710774
0.015023461
0.013773991
0.012037402
0.0099471835
0.0076913857
0.0054932703
0.0035813949
0.0021480919
0.0013129962
0.0011050609
0.0014689814
0.0022909389
0.0034311228
0.0047520529
0.0061371209
0.007498523
0.0087775077
0.0099681965
0.01105352
0.01202106
0.012880513
0.013643654
0.014324885
0.014939872
0.01550652
0.0054128369
0.0047950029
0.0042801291
0.003830755
0.0034103233
0.0030007247
0.0025996968
0.0022150583
0.0018577589
0.0015312694
0.0012304181
0.0010047861
0.00078701553
0.00063281164
0.00052671436
0.00044093836
0.00035358943
0.00025949699
0.00011844099
5.6418571e-05
0.0061516603
0.0069966771
0.0078875084
0.0087687605
0.0096383156
0.010565297
0.01164774
0.012928296
0.014344175
0.015978574
0.016815015
0.017441063
0.017596402
0.017184813
0.016139773
0.014513206
0.012410976
0.010000456
0.0075021635
0.0051643019
0.0032240933
0.0018623673
0.001169883
0.0011384763
0.0016782639
0.0026507002
0.0039031978
0.0052958539
0.0067164508
0.008084843
0.0093847339
0.010582638
0.011654566
0.012607197
0.013451396
0.014200315
0.014869628
0.015476334
0.016040287
0.0060615169
0.0053860551
0.0048227015
0.0043313643
0.003869511
0.0034147853
0.0029661142
0.0025343562
0.0021306016
0.0017587069
0.0014188735
0.0011705093
0.00091594238
0.00071445256
0.00056960114
0.00046869367
0.00038669552
0.00030378692
0.00021504849
9.2880936e-05
4.9560047e-05
0.0068718164
0.0078023939
0.0087959363
0.0098095406
0.010850352
0.011988782
0.013318488
0.014855865
0.016507897
0.018273685
0.019054109
0.01950647
0.019384856
0.018615984
0.017171386
0.015137632
0.012654657
0.0099261019
0.0072057553
0.0047633348
0.0028372699
0.0015874925
0.0010681776
0.0012305086
0.0019507559
0.0030687923
0.0044232388
0.0058753088
0.0073196678
0.0087267546
0.010042603
0.011226692
0.01228162
0.013215628
0.014041264
0.014772976
0.015427782
0.016024096
0.016583855
0.0067812341
0.0060409484
0.0054232624
0.0048816301
0.0043710542
0.0038650899
0.0033627484
0.0028785041
0.0024254339
0.0020057007
0.0016178766
0.0013415839
0.001056059
0.00082062882
0.00063287657
0.00049776486
0.00040411564
0.00032817094
0.00025210526
0.00017150879
6.9572128e-05
4.2303262e-05
0.0076679051
0.0086942122
0.0098159048
0.010996887
0.012242479
0.013624909
0.015224306
0.017028503
0.018899741
0.020748532
0.021405201
0.021617211
0.02116011
0.019979896
0.018096531
0.015629221
0.012756023
0.0097193514
0.0068059206
0.0043014361
0.0024360816
0.0013387971
0.0010203617
0.0013894412
0.0022904073
0.0035455651
0.0049892744
0.0064875137
0.0079946034
0.009431088
0.010734469
0.011900575
0.012934205
0.013845793
0.014649425
0.015360892
0.01599862
0.016582535
0.017136778
0.0075797974
0.0067745089
0.0060938882
0.0054933819
0.0049236995
0.0043582811
0.0037945264
0.0032502361
0.0027424616
0.0022723271
0.0018338716
0.0015223535
0.0012005804
0.00093615661
0.0007169693
0.00054379382
0.00042119251
0.00033718593
0.00026934179
0.00020202077
0.00013188539
5.0109425e-05
3.4748435e-05
0.0085439616
0.0096858486
0.010970053
0.012352273
0.013835348
0.015489975
0.017379343
0.019449877
0.021508396
0.023381259
0.023842789
0.023750275
0.022896217
0.021253217
0.018893766
0.0159709
0.012704627
0.0093785924
0.0063100854
0.0037929122
0.0020376675
0.0011322578
0.0010385905
0.0016224419
0.002699549
0.0040799341
0.0055987003
0.0071909709
0.0087468587
0.010174799
0.011460778
0.012603844
0.013611781
0.014496963
0.015275051
0.015963209
0.016581336
0.017150988
0.017698662
0.0084542019
0.0075938729
0.0068530227
0.0061828793
0.0055401827
0.0049025907
0.0042682361
0.0036552447
0.0030843793
0.0025585344
0.0020670523
0.0017190104
0.0013531262
0.0010559249
0.00080928583
0.00060728915
0.00045225699
0.00034493216
0.00027232403
0.0002140449
0.00015685067
9.8382116e-05
3.5227541e-05
2.7219619e-05
0.0095083317
0.010800159
0.012280737
0.013895317
0.015646951
0.017601691
0.019795632
0.022116996
0.024313993
0.026148973
0.026341106
0.025883456
0.024566152
0.022411887
0.019541921
0.016146764
0.012492556
0.0089057749
0.0057295745
0.0032551232
0.0016609333
0.00098427786
0.0011341052
0.0019347145
0.0031786497
0.0046700859
0.0063222973
0.0079902792
0.0095452345
0.010958618
0.012221141
0.013336019
0.014313619
0.015168266
0.015917193
0.016578969
0.017175091
0.017728845
0.018269006
0.0094064048
0.0084872688
0.007707487
0.0069708323
0.0062405822
0.005512042
0.0047922257
0.0041006534
0.0034576942
0.0028672363
0.0023172009
0.0019313895
0.0015193329
0.0011829301
0.0009060425
0.00067847034
0.00049811649
0.00036430436
0.000273798
0.00021360282
0.00016552343
0.00011893654
7.2066074e-05
2.4463024e-05
2.0170605e-05
0.010583737
0.012060002
0.013766918
0.015643927
0.017696837
0.019978371
0.022477779
0.025012362
0.027300103
0.0290313
0.028881585
0.027988383
0.026142892
0.023431585
0.020020285
0.016142433
0.0121149
0.0083069215
0.0050797172
0.0027085513
0.0013264175
0.00091088051
0.0013159854
0.0023291869
0.0037274086
0.0054002582
0.0071643933
0.0088443171
0.010390801
0.011782231
0.013015178
0.014096402
0.015038828
0.01585868
0.016574767
0.017207194
0.017779085
0.01831536
0.018847283
0.010459612
0.0094488112
0.0086362837
0.007865341
0.0070487639
0.0062096874
0.0053818799
0.004595347
0.0038700318
0.0032061953
0.002587745
0.0021588299
0.0016992327
0.0013223677
0.0010098983
0.00075494698
0.00055167864
0.00039646617
0.00028525729
0.0002118969
0.00016412284
0.0001259898
8.922005e-05
5.2459144e-05
1.6989883e-05
1.4046849e-05
0.011795822
0.013485254
0.015446133
0.017618925
0.020007927
0.022634664
0.025413408
0.028118983
0.030462259
0.032014436
0.031439488
0.030034019
0.027599374
0.024287751
0.020308704
0.015945359
0.011570206
0.0075925681
0.0043803315
0.0021769432
0.0010552662
0.00092599434
0.0015907109
0.0028080753
0.0044438042
0.0062760601
0.0080723945
0.0097545369
0.011283324
0.012645396
0.013842254
0.014884116
0.015786344
0.016567029
0.017246682
0.017846906
0.018392373
0.018909717
0.019432945
0.011642583
0.010505256
0.0096271633
0.0088343315
0.0079714503
0.0070213697
0.0060627266
0.0051563213
0.0043311626
0.0035826543
0.0028867726
0.0024067018
0.0018929266
0.0014742103
0.0011255639
0.00083894961
0.00061180903
0.00043682855
0.00030802407
0.00021891461
0.00016193699
0.00012540246
9.581764e-05
6.7106175e-05
3.8311049e-05
1.2019718e-05
9.2089052e-06
0.013163943
0.015093389
0.01733988
0.019846652
0.022602393
0.025564161
0.028582655
0.031441536
0.033795528
0.035070146
0.033986798
0.031990998
0.028908834
0.02495606
0.020387378
0.01554523
0.01086131
0.006778767
0.0036563735
0.0016862364
0.00086697088
0.0010408529
0.0019643018
0.0034816452
0.0053375303
0.0072324586
0.009048147
0.010720771
0.01222273
0.013547577
0.014701544
0.015698092
0.016554932
0.017292145
0.017931801
0.018497001
0.019013895
0.019511065
0.020025424
0.012977784
0.011689124
0.010710487
0.0098632806
0.0089686749
0.0079510793
0.0068607102
0.0058107574
0.0048598952
0.004008737
0.0032235818
0.0026813947
0.0021043503
0.0016388566
0.0012530558
0.00093493788