/*--------------------------------*- C++ -*----------------------------------*\
  =========                 |
  \\      /  F ield         | OpenFOAM: The Open Source CFD Toolbox
   \\    /   O peration     | Website:  https://openfoam.org
    \\  /    A nd           | Version:  8
     \\/     M anipulation  |
\*---------------------------------------------------------------------------*/
FoamFile
{
    version     2.0;
    format      ascii;
    class       volVectorField;
    location    "200.966377299857271";
    object      U;
}
// * * * * * * * * * * * * * * * * * * * * * * * * * * * * * * * * * * * * * //

dimensions      [0 1 -1 0 0 0 0];

internalField   nonuniform List<vector> 
9200
(
(1.0368864 0.00060996343 -2.5989918e-24)
(1.0370809 0.0019301921 7.6792939e-22)
(1.0349827 0.0006022914 0)
(1.0374046 0.0031075641 -4.0655073e-22)
(1.0351369 0.0019204989 5.5934324e-22)
(1.0341857 0.00059584254 0)
(1.0378268 0.0042779453 -4.0810956e-23)
(1.0354271 0.0030788643 5.3580879e-24)
(1.0343383 0.0019046837 0)
(1.0330271 0.00058034644 0)
(1.0382899 0.0053886658 8.4196998e-22)
(1.0357996 0.0042144087 5.3367303e-22)
(1.0346292 0.0030562053 3.30521e-22)
(1.0331578 0.0018638656 1.9636102e-23)
(1.0321056 0.00056033713 3.4849826e-25)
(1.0387505 0.006450932 8.0579538e-22)
(1.0362315 0.0052512605 -3.101429e-23)
(1.0350188 0.0041904273 1.1177208e-21)
(1.0334211 0.0029967454 4.6407954e-22)
(1.0322231 0.0018062246 2.6359188e-23)
(1.0311916 0.00053263116 -7.9124857e-22)
(1.0391553 0.0074376027 7.8427138e-22)
(1.0367257 0.0061851304 8.0486088e-22)
(1.0355071 0.0052426962 -6.8521399e-22)
(1.0337752 0.0041230123 -5.1532448e-23)
(1.032465 0.0029104265 4.0152695e-22)
(1.0312892 0.0017224379 4.096119e-22)
(1.0303757 0.00049998824 8.0446999e-23)
(1.0394995 0.008331425 2.6408825e-22)
(1.0372558 0.006971528 6.3134489e-22)
(1.0360676 0.0062095726 8.2949941e-22)
(1.0342377 0.0051975741 5.3217538e-23)
(1.0327888 0.0040169205 -1.090768e-21)
(1.0314975 0.0027776508 -4.8459761e-22)
(1.0304586 0.0016204183 -4.0748872e-22)
(1.0296359 0.00046415942 6.6754754e-22)
(1.0396934 0.009132683 -9.5670002e-22)
(1.0377645 0.007561368 7.8789094e-22)
(1.0367088 0.0070538718 1.776428e-23)
(1.0348215 0.0062260782 4.0902476e-22)
(1.0332201 0.0051000996 1.4828502e-22)
(1.0317616 0.0038364589 -1.6071022e-21)
(1.0306408 0.0026114598 -2.9810788e-23)
(1.0297068 0.0015050995 -6.6209419e-22)
(1.0289782 0.00042811446 -1.3457053e-21)
(1.0396828 0.0097632261 6.3862471e-22)
(1.0382469 0.0079172046 -4.9468143e-22)
(1.0374132 0.007725384 -3.378167e-23)
(1.035548 0.0071852043 -1.1478396e-22)
(1.0337707 0.0061866018 -1.8012477e-22)
(1.0320966 0.004888279 2.9495545e-22)
(1.0308583 0.003601184 5.6620169e-22)
(1.0298685 0.0024199306 8.5569108e-22)
(1.0290433 0.0013864405 4.9344528e-22)
(1.0283947 0.00039404467 1.2631163e-22)
(1.0393278 0.010207724 -3.266892e-22)
(1.0387568 0.0079515083 -4.56176e-23)
(1.0383031 0.0081542514 6.567444e-22)
(1.0364812 0.0080490881 -7.1333126e-22)
(1.0344599 0.0072827654 5.6699321e-22)
(1.0325084 0.0059817591 -1.5493232e-21)
(1.0311075 0.0045823615 1.1481021e-22)
(1.0300491 0.0033223791 1.2112031e-21)
(1.0291947 0.0022219488 -5.4524743e-22)
(1.0284592 0.0012726417 1.2332679e-21)
(1.0278775 0.00036458632 -1.3393281e-22)
(1.0385474 0.010319064 7.799092e-23)
(1.0393749 0.007407418 -6.5046251e-23)
(1.0394523 0.0083845271 -6.6453839e-22)
(1.0376276 0.0087949499 0)
(1.035311 0.0084228523 2.9730856e-23)
(1.0330132 0.0071679508 -3.6426369e-22)
(1.0313685 0.0056021337 -2.9559328e-22)
(1.0302311 0.0042029273 -6.2399256e-22)
(1.0293572 0.0030309242 -4.4392349e-22)
(1.0286095 0.0020341138 -6.7209656e-22)
(1.0279442 0.0011711934 -4.1090073e-22)
(1.0274166 0.00034068001 1.033473e-22)
(1.0369993 0.0099995285 2.9469932e-23)
(1.0399028 0.0061869076 -1.6412112e-22)
(1.0411444 0.0083185221 0)
(1.038961 0.0094217718 0)
(1.0362844 0.0096689421 -3.0041518e-22)
(1.0335765 0.0085098912 -2.1870725e-22)
(1.0316236 0.0067251204 -2.7891919e-22)
(1.0303726 0.0050887516 8.5362302e-22)
(1.0295105 0.0038000288 1.0150191e-22)
(1.0287718 0.0027551518 5.5337931e-24)
(1.0281002 0.0018696776 5.6369353e-22)
(1.027487 0.0010851583 -4.1524421e-22)
(1.0270021 0.00032153618 1.1103757e-21)
(1.0348166 0.009072668 -2.6991164e-22)
(1.0406377 0.0040362534 3.1021908e-23)
(1.0434238 0.0077531846 -7.1474869e-22)
(1.0408347 0.010082503 5.516893e-22)
(1.0373887 0.011095377 -3.3439149e-22)
(1.0340995 0.010081809 -1.4149023e-22)
(1.0318155 0.0080099322 3.1459055e-22)
(1.0304425 0.0060270529 3.3612112e-23)
(1.0296048 0.004530984 1.1091165e-21)
(1.0289297 0.0034206925 1.0184807e-21)
(1.028275 0.0025166548 1.9358347e-22)
(1.0276519 0.0017346537 5.6394901e-22)
(1.0270764 0.0010128283 3.48899e-22)
(1.026627 0.00030582122 -2.6446665e-22)
(1.0321611 0.0074860921 -5.2780339e-23)
(1.0412877 0.00072093275 7.3122195e-22)
(1.0463114 0.0065650447 -8.325923e-23)
(1.0435071 0.01071339 -3.4549376e-23)
(1.0389264 0.012773633 -2.581085e-23)
(1.0346076 0.011954423 2.4579852e-22)
(1.0318403 0.0095123003 3.4858035e-22)
(1.0303745 0.0070438341 -3.8453056e-22)
(1.0296034 0.0052393589 -2.3469533e-22)
(1.0290388 0.0040102454 -1.4635115e-22)
(1.0284617 0.0031003902 -1.1959706e-23)
(1.0278444 0.0023263217 -2.8403731e-22)
(1.0272495 0.0016258221 -5.0460122e-22)
(1.0267038 0.00095004964 1.7520981e-22)
(1.0262861 0.00029194339 -1.3714752e-22)
(1.0288142 0.0052503542 1.2818057e-22)
(1.042033 -0.0039566864 -5.1416406e-22)
(1.050039 0.0045733154 1.0269877e-21)
(1.0471187 0.011310876 -1.0572394e-21)
(1.0410402 0.014887853 5.9216739e-22)
(1.0351566 0.01428501 -1.2574235e-21)
(1.0316194 0.011314251 -4.7501587e-23)
(1.0300451 0.0081671743 8.6572187e-23)
(1.0294477 0.0059151791 -1.7025321e-22)
(1.0290722 0.004512932 -6.9061135e-22)
(1.0286295 0.0035850934 -1.3347828e-21)
(1.0280695 0.0028578594 -1.291638e-22)
(1.027458 0.0021797353 1.4402596e-22)
(1.0268817 0.0015346212 1.6239167e-22)
(1.0263642 0.0008916855 1.2737046e-22)
(1.0259769 0.00027847912 1.2223217e-22)
(1.0243661 0.0022156148 0)
(1.0429475 -0.010019401 -8.8366289e-22)
(1.0547138 0.0014675047 2.9063877e-23)
(1.0519795 0.011812043 0)
(1.0438659 0.017626028 0)
(1.0357601 0.017311262 0)
(1.0310395 0.013557079 2.0298322e-22)
(1.0293006 0.0094386784 6.8193111e-22)
(1.0290161 0.0065467847 1.2047075e-21)
(1.0289907 0.0048865658 4.8448511e-22)
(1.0287698 0.0039476097 2.4738682e-22)
(1.0283117 0.0032863157 3.0338816e-22)
(1.0277167 0.0026877705 8.8068574e-23)
(1.0270992 0.0020623684 -1.7324947e-22)
(1.0265428 0.0014506317 -1.3999848e-22)
(1.0260553 0.00083313325 -5.5850027e-23)
(1.0256982 0.00026445109 0)
(1.0188032 -0.0016812146 -8.9050787e-22)
(1.0435777 -0.017632106 9.4778126e-22)
(1.0600598 -0.0026840457 -7.8828031e-21)
(1.0582929 0.012203974 -2.6839383e-21)
(1.0476322 0.021120725 -1.0447455e-21)
(1.0364269 0.021270035 0)
(1.030015 0.016407921 1.1996451e-21)
(1.0279975 0.010920524 -6.6555152e-22)
(1.0281415 0.007107449 -5.2432193e-22)
(1.0287059 0.0050836507 1.5124541e-21)
(1.0288662 0.0041279521 -2.7369427e-22)
(1.0285798 0.0035884453 3.1205178e-22)
(1.028021 0.0031067562 1.3123873e-22)
(1.027376 0.0025637494 -7.0077339e-22)
(1.0267609 0.0019555109 -4.4344616e-22)
(1.0262313 0.0013645167 -3.0382176e-22)
(1.025777 0.00077134182 -1.6417743e-22)
(1.0254496 0.00024945413 -4.3032773e-23)
(1.0120853 -0.0063658943 2.1218288e-22)
(1.0436591 -0.026873712 7.5038558e-22)
(1.0660754 -0.0080226169 1.2161073e-21)
(1.0655054 0.012487033 -4.4839623e-21)
(1.0524388 0.025812802 1.6508592e-22)
(1.0371301 0.026416039 -1.8403383e-21)
(1.0284227 0.02006444 -4.3093815e-21)
(1.0259687 0.012667481 -3.2534168e-21)
(1.0266887 0.0075695546 -1.0228105e-21)
(1.0280744 0.0050238335 -7.0113271e-22)
(1.0288843 0.0040615661 -3.3053077e-22)
(1.0288835 0.0037097332 -4.5335797e-22)
(1.0283889 0.0034240734 -3.8392604e-22)
(1.0277176 0.0030012688 2.0833089e-22)
(1.0270392 0.0024538761 2.9352983e-22)
(1.026443 0.0018423562 3.9851657e-23)
(1.025949 0.0012700485 -3.5568044e-23)
(1.0255299 0.00070519967 -4.827494e-23)
(1.0252304 0.0002336612 3.5481057e-23)
(1.0040154 -0.011786818 2.1695497e-21)
(1.0427771 -0.037634058 -4.4582573e-22)
(1.0725847 -0.014722903 3.0250474e-20)
(1.0737115 0.012611717 2.6137675e-21)
(1.0577375 0.031710818 -1.695465e-21)
(1.0377709 0.033283436 -1.0287222e-21)
(1.026049 0.024725017 4.4548827e-22)
(1.0230033 0.014754427 -4.2181085e-22)
(1.0244932 0.0078863188 -5.28737e-22)
(1.0270044 0.0045926174 -1.7386437e-21)
(1.028745 0.003629338 -5.5937587e-22)
(1.0292562 0.0035830114 3.8446195e-22)
(1.0288653 0.0036013599 3.806875e-22)
(1.0281513 0.0033809116 -4.131819e-23)
(1.0273874 0.0029162039 2.7649545e-22)
(1.0267076 0.0023306896 5.8790525e-23)
(1.0261505 0.0017119696 2.770091e-22)
(1.0256989 0.0011648393 7.1028921e-23)
(1.0253147 0.00063549091 1.7888297e-23)
(1.0250398 0.00021770886 -7.8934271e-23)
(0.99422922 -0.017893812 7.7736848e-23)
(1.0406112 -0.049739177 -1.7128634e-21)
(1.0787663 -0.022755647 -4.9328076e-21)
(1.0826712 0.012672288 -7.4087347e-21)
(1.0634926 0.039019081 -1.2106675e-21)
(1.0380622 0.041827379 3.2943576e-22)
(1.0226228 0.030794656 3.9004811e-21)
(1.0188086 0.017250068 8.0901196e-21)
(1.0213426 0.0080006982 1.2407161e-21)
(1.0253892 0.0036698979 0)
(1.028415 0.0026624597 2.8331573e-22)
(1.0296849 0.0030799729 9.335141e-22)
(1.0295387 0.0035931912 3.7513942e-24)
(1.0287489 0.0036698603 -6.8446904e-22)
(1.0278381 0.0033719208 -2.9902977e-22)
(1.0270305 0.0028073007 1.2560657e-22)
(1.0263911 0.0021757072 3.8065921e-22)
(1.0258906 0.0015600424 1.5914751e-22)
(1.0254838 0.0010503335 -1.3533375e-22)
(1.0251311 0.00056456015 3.2483492e-23)
(1.0248759 0.00020253438 -1.2765515e-22)
(0.98226683 -0.02431565 -3.2387007e-21)
(1.0359155 -0.062725411 -1.6490043e-21)
(1.0839859 -0.032178267 -2.6622608e-20)
(1.0917519 0.012798809 1.9867447e-20)
(1.069524 0.048070658 6.4687114e-21)
(1.0377796 0.052291523 -1.6328873e-21)
(1.0180846 0.038247126 0)
(1.0129762 0.020297135 -2.1765099e-21)
(1.0169782 0.0078437257 -2.658935e-21)
(1.0230715 0.0021063485 -1.9619117e-21)
(1.0278633 0.00099417568 5.2244148e-22)
(1.0302201 0.0020276824 4.3106107e-22)
(1.0304595 0.0032963313 -1.5661373e-22)
(1.0295466 0.0038748922 2.3886369e-22)
(1.0284388 0.0038156593 2.0797776e-22)
(1.0274376 0.0033288676 -2.0994281e-22)
(1.0266663 0.0026434537 -1.6106898e-23)
(1.0261046 0.0019798882 -6.5172881e-23)
(1.0256705 0.0013887012 2.0562171e-22)
(1.0253053 0.00093106544 3.5887046e-23)
(1.0249775 0.00049576888 -9.3168817e-23)
(1.0247358 0.00018917334 0)
(0.96812416 -0.030877708 -7.1470571e-22)
(1.0276231 -0.075963733 1.0378783e-21)
(1.0855012 -0.042639917 6.9907073e-22)
(1.1006461 0.012650093 2.7315824e-20)
(1.0760241 0.058787073 5.1796939e-21)
(1.0366888 0.064999988 -1.614754e-21)
(1.012106 0.047275011 3.9940403e-21)
(1.0054711 0.023935394 4.9417317e-21)
(1.0110383 0.0073140719 7.2023165e-22)
(1.0198775 -0.00026378614 3.5187298e-22)
(1.0270239 -0.001568374 -6.5832876e-23)
(1.0308988 0.00024929619 -1.0634142e-21)
(1.0317437 0.0025840524 -3.9344922e-23)
(1.0307314 0.0039875723 1.5912828e-21)
(1.0292396 0.0042892009 6.7928899e-22)
(1.0279481 0.0039173504 2.0696374e-22)
(1.0269839 0.0031909814 -2.3838951e-22)
(1.0263236 0.0024082723 1.3227268e-22)
(1.0258623 0.0017444236 8.269279e-23)
(1.0254956 0.00120515 -1.1791244e-22)
(1.0251629 0.00081337237 0)
(1.0248511 0.00043292445 2.7287194e-22)
(1.0246159 0.00017858133 -4.0684975e-24)
(0.95211216 -0.037486975 8.009801e-22)
(1.016679 -0.089117343 -2.6760288e-21)
(1.081756 -0.054116651 -3.6815396e-20)
(1.1038757 0.010771913 -1.6477539e-20)
(1.0850638 0.070430635 2.0807489e-20)
(1.0359059 0.07972052 0)
(1.0043159 0.058137926 1.1354244e-21)
(0.99607296 0.028131231 6.8803532e-22)
(1.0032409 0.0063690571 3.858618e-21)
(1.0155858 -0.0036323386 4.2120502e-21)
(1.0258189 -0.0052491444 -8.0527875e-22)
(1.0317671 -0.0024582923 -5.774148e-22)
(1.0334941 0.0013148021 3.3770797e-22)
(1.0324494 0.0039215607 2.8877524e-22)
(1.0304172 0.0048437123 -1.7761606e-22)
(1.0286075 0.0046397316 -9.7402153e-22)
(1.0273434 0.0038573199 -1.0843153e-21)
(1.0265339 0.0029262719 4.7371936e-23)
(1.0260312 0.0021017475 -7.3882813e-22)
(1.0256771 0.0014814592 5.6257519e-22)
(1.0253678 0.0010196889 4.3573255e-22)
(1.0250542 0.00070420134 -4.2605607e-22)
(1.0247482 0.00037967458 2.6453842e-22)
(1.0245121 0.00017151796 -1.6388221e-24)
(0.93460896 -0.043981996 -9.4285681e-22)
(1.0031473 -0.10196447 3.4830998e-22)
(1.0744835 -0.065980932 1.1544123e-20)
(1.1036837 0.0074487281 1.1292018e-19)
(1.0981299 0.082533169 -1.9718042e-20)
(1.0377962 0.09624734 1.7672735e-20)
(0.99547618 0.070701225 1.3373587e-21)
(0.98434969 0.033106081 -8.0702888e-21)
(0.99370144 0.0048338618 4.5021166e-22)
(1.0098717 -0.0082466058 1.6110557e-21)
(1.0241624 -0.010302028 -6.2071306e-22)
(1.0328691 -0.006341583 9.948698e-22)
(1.0358697 -0.00068423055 1.9856111e-23)
(1.0348402 0.0036104994 -6.8386313e-23)
(1.0321433 0.0055056821 -9.7351969e-22)
(1.0295492 0.0055883324 8.257471e-23)
(1.0277576 0.0047261711 -1.9650695e-22)
(1.0267175 0.0035815178 5.1643263e-23)
(1.0261413 0.0025358908 0)
(1.0258111 0.0017382486 -2.0961307e-23)
(1.0255559 0.0012078316 3.6015025e-24)
(1.0252856 0.00084360173 -1.9804756e-23)
(1.0249754 0.00061004171 6.4347179e-23)
(1.0246645 0.00033891433 -3.6798766e-22)
(1.0244198 0.00016849779 -1.6521191e-22)
(0.91608604 -0.050233596 1.721839e-21)
(0.98718427 -0.1142555 -3.1474455e-21)
(1.0631332 -0.077898053 -1.5325714e-20)
(1.1006092 0.0037981096 -1.5684393e-20)
(1.1003643 0.094072174 -7.7488898e-20)
(1.0413903 0.11572992 8.2369604e-22)
(0.98751904 0.085559335 1.7589908e-21)
(0.97025043 0.038686107 5.2067512e-22)
(0.98228562 0.002695951 5.7090451e-21)
(1.0027672 -0.014234068 -2.488962e-22)
(1.0219314 -0.017003547 1.3155752e-21)
(1.0342585 -0.011681096 -3.751862e-23)
(1.0390513 -0.0036228805 -4.7886543e-23)
(1.0381409 0.0029651957 -1.5294838e-22)
(1.0345832 0.0063088733 -3.5106109e-22)
(1.0309133 0.006881564 1.5858224e-21)
(1.0282945 0.0059223747 3.1943831e-21)
(1.0268446 0.0044649227 -1.5189179e-23)
(1.0261565 0.0030939507 -3.6975495e-22)
(1.0258466 0.0020445179 4.7336727e-23)
(1.0256789 0.001344763 6.7594937e-22)
(1.0254988 0.00094238215 4.1034511e-22)
(1.0252446 0.00068745674 -5.9851341e-22)
(1.0249215 0.00053599625 4.8360954e-22)
(1.0245949 0.0003124174 -2.9980914e-22)
(1.0243346 0.00016974976 1.2936408e-23)
(0.89705874 -0.056100902 -3.6514391e-23)
(0.96937784 -0.12579124 -1.1168749e-21)
(1.0478896 -0.089500651 5.5446478e-20)
(1.0920571 0.0015617793 -9.2446687e-20)
(1.0890082 0.10502317 7.8232336e-20)
(1.0396534 0.13619141 -2.1395744e-20)
(0.98093004 0.10314273 8.8894791e-21)
(0.9548942 0.045264594 5.0304296e-21)
(0.96844642 -0.00025157797 -8.7985518e-21)
(0.99455547 -0.021725879 -2.5800042e-21)
(1.0189127 -0.025650514 3.7784204e-22)
(1.0359588 -0.018766206 -9.3494091e-22)
(1.0432425 -0.0077624835 -3.4877606e-22)
(1.0426391 0.0018962441 2.0980063e-23)
(1.0379881 0.0072846564 -2.5668395e-22)
(1.0328393 0.0086552279 3.6933385e-22)
(1.0290351 0.0076166761 -3.9638836e-22)
(1.0269092 0.005709153 6.8978701e-22)
(1.0260089 0.0038682435 -4.2365878e-22)
(1.0257271 0.0024368198 3.1853711e-22)
(1.0256748 0.001491246 0)
(1.0256397 0.00095549743 4.1861003e-22)
(1.0255003 0.00070323078 -8.3258984e-23)
(1.0252374 0.00056033535 0)
(1.0248864 0.00048523172 -6.0492811e-22)
(1.0245339 0.00030079981 -2.8435674e-25)
(1.0242531 0.00017515481 1.6034781e-22)
(0.8780276 -0.061565853 -4.9241909e-23)
(0.9503453 -0.13648349 -1.5127985e-21)
(1.0295626 -0.10039129 4.8153417e-20)
(1.0780003 -0.00037888487 -8.2160439e-21)
(1.0734409 0.11655016 1.5482728e-20)
(1.0293324 0.15506222 2.5441357e-20)
(0.97493278 0.12258921 -7.2801479e-23)
(0.94034081 0.053485851 -7.345707e-21)
(0.95229158 -0.0041691967 1.06148e-21)
(0.98494129 -0.030765264 4.5137258e-21)
(1.0152574 -0.036340156 -6.6413102e-22)
(1.0379168 -0.027924144 1.5766101e-21)
(1.0485945 -0.013394244 1.2026025e-21)
(1.0486592 0.00022271895 -1.6738813e-22)
(1.0426735 0.008488862 -1.1794328e-22)
(1.035523 0.011070187 -3.6874415e-22)
(1.0300491 0.010008714 -2.3623014e-21)
(1.0269203 0.0074979067 -6.0316171e-22)
(1.0256268 0.0049701727 -2.1786559e-22)
(1.0253581 0.0030003087 -1.6843598e-21)
(1.0254709 0.0016734727 4.9747966e-22)
(1.025636 0.00092846506 2.295864e-22)
(1.0256858 0.00059861408 -2.002581e-23)
(1.0255503 0.00050502578 0)
(1.0252564 0.00046906833 0)
(1.0248627 0.00045923757 4.5036682e-23)
(1.0244775 0.00030366565 -4.0045416e-22)
(1.024172 0.00018449034 -2.9462507e-22)
(0.85938829 -0.066578549 0)
(0.93069763 -0.14628025 -5.1507437e-21)
(1.009078 -0.11041067 -4.5084143e-20)
(1.0597372 -0.0019897501 -4.5449535e-20)
(1.0560172 0.12797888 -6.3745071e-20)
(1.0139799 0.17223904 1.5303707e-21)
(0.96665816 0.14173301 4.6410616e-21)
(0.92726506 0.063735417 -1.1584231e-20)
(0.93452695 -0.0086049652 7.5501555e-21)
(0.97362877 -0.041678593 -1.9100683e-21)
(1.0112332 -0.04906733 6.2476123e-23)
(1.0398901 -0.039502946 1.2994057e-21)
(1.0553373 -0.020816561 5.6897665e-21)
(1.0565476 -0.0022299176 -2.9704493e-22)
(1.0489894 0.0099383833 -4.6311327e-22)
(1.0392134 0.014323449 -6.2677453e-22)
(1.0314229 0.013340373 -2.799436e-22)
(1.026862 0.010046892 -8.1545761e-22)
(1.0249528 0.0065588248 1.0989499e-21)
(1.0246273 0.0038077757 -1.4601464e-21)
(1.0249599 0.0019515866 4.1501582e-22)
(1.025408 0.00087923483 2.9937023e-22)
(1.0257229 0.00040827737 5.7332188e-23)
(1.0258028 0.00029679844 -1.4889211e-21)
(1.0256371 0.00035796989 -2.237608e-22)
(1.0252936 0.00041769117 -8.9999908e-24)
(1.0248465 0.00045744878 6.3767507e-22)
(1.0244238 0.0003200718 -2.5577566e-22)
(1.0240881 0.00019765893 3.9083058e-22)
(0.84152862 -0.071189098 3.1384436e-21)
(0.91097933 -0.15516091 0)
(0.98731167 -0.11942304 0)
(1.0384297 -0.0032873097 0)
(1.035263 0.13923993 1.6906378e-20)
(0.99536486 0.18832693 -3.5883752e-20)
(0.95311016 0.15962251 4.6144931e-21)
(0.91432255 0.075681127 1.9080598e-21)
(0.91613909 -0.012841293 8.4819095e-21)
(0.96054145 -0.054445398 -6.4294838e-21)
(1.0064672 -0.063965815 4.2684674e-21)
(1.0422083 -0.053721609 -5.050156e-22)
(1.0636465 -0.030491907 -4.382805e-21)
(1.0667342 -0.0056495053 3.5516392e-22)
(1.0573905 0.011696285 -2.3490923e-21)
(1.0441784 0.018667999 -6.9230545e-22)
(1.0332607 0.017912736 -1.4089472e-21)
(1.0267022 0.013609968 5.2546032e-22)
(1.0238975 0.0088218426 1.833387e-21)
(1.0234242 0.0049674542 8.6200715e-22)
(1.0240166 0.0023597557 -4.6691316e-22)
(1.0248498 0.00082791403 -3.8819442e-22)
(1.0255356 0.00012876666 1.0463233e-21)
(1.0259184 -3.6269682e-05 -8.8924148e-22)
(1.0259755 6.7234819e-05 1.4293965e-22)
(1.0257499 0.00026806912 -3.1322371e-22)
(1.0253395 0.00040709239 7.9263359e-22)
(1.0248334 0.00047756351 3.9806147e-23)
(1.0243664 0.00035065964 9.5166517e-22)
(1.023999 0.00021428171 1.992699e-22)
(0.82299594 -0.075308178 5.9870592e-22)
(0.89171038 -0.16322466 -6.1946875e-21)
(0.9650439 -0.12758802 0)
(1.0154078 -0.0043475578 0)
(1.0126559 0.14983347 0)
(0.97398306 0.20341229 0)
(0.93488091 0.1762321 0)
(0.89969056 0.088044573 -5.3131667e-22)
(0.89766078 -0.016359978 -2.635006e-21)
(0.9458619 -0.068769315 3.3678188e-21)
(1.0006549 -0.081151928 -9.7046677e-22)
(1.0448146 -0.070418486 2.6345498e-21)
(1.0733439 -0.0430015 1.0878236e-20)
(1.0798596 -0.010398716 -8.1687479e-21)
(1.0684174 0.013825759 3.4645667e-22)
(1.0507442 0.024409058 -1.0449394e-21)
(1.0356458 0.02408703 8.9284987e-22)
(1.026391 0.018495087 1.0578749e-21)
(1.0223352 0.011972058 -1.2933762e-21)
(1.0216073 0.006611645 -2.5030459e-22)
(1.0224987 0.0029486645 5.832064e-23)
(1.0238371 0.0007745491 -3.3375342e-22)
(1.0250334 -0.00026236558 -5.4127228e-23)
(1.0258353 -0.00052866095 -4.4478221e-22)
(1.0262026 -0.00038469238 -1.06562e-22)
(1.0261895 -8.0458784e-05 1.5310494e-21)
(1.025877 0.00023718452 3.4769191e-22)
(1.0253817 0.00043277742 -3.5124305e-22)
(1.0248136 0.00053107331 6.5136959e-24)
(1.0243021 0.00039488687 -6.378228e-22)
(1.0239027 0.00023390903 -1.1994276e-22)
(0.80371336 -0.079597053 -7.8878522e-21)
(0.87135967 -0.17096703 -6.4278446e-21)
(0.94264836 -0.13439285 -2.0694165e-20)
(0.99154958 -0.0051613187 -6.1563274e-20)
(0.98892178 0.15976262 0)
(0.95133792 0.21746418 0)
(0.91427663 0.19144181 3.6310284e-21)
(0.88292769 0.099840185 -5.6211231e-21)
(0.87933651 -0.019136764 1.1607169e-22)
(0.93000725 -0.084310105 2.1168379e-22)
(0.99375108 -0.10050642 3.1248916e-21)
(1.0471423 -0.089803596 9.1187484e-21)
(1.0841455 -0.05823701 -6.0586041e-21)
(1.0959042 -0.016769255 1.7844819e-21)
(1.0827889 0.016301047 5.520302e-21)
(1.0593435 0.031843738 -3.4781208e-22)
(1.0386643 0.032285369 2.0764714e-21)
(1.0258398 0.025044272 -9.8866083e-23)
(1.0201049 0.016249184 -3.9171589e-21)
(1.0189949 0.0088839817 5.6896777e-22)
(1.0202318 0.0037803182 -2.4181317e-21)
(1.0222208 0.00072523039 -4.0693922e-22)
(1.0240915 -0.0007920611 1.9640941e-21)
(1.0254797 -0.0012358545 1.2621136e-22)
(1.0262761 -0.0010638492 -7.9107324e-22)
(1.026552 -0.00062795521 9.5658366e-22)
(1.0264276 -0.00014638727 4.5224311e-22)
(1.0260048 0.00026212081 3.137076e-22)
(1.0254233 0.00049962277 -4.7388996e-22)
(1.0247864 0.00060602946 -1.7824752e-23)
(1.0242292 0.00045030604 -2.3887558e-22)
(1.0237979 0.00025595533 -1.0245023e-23)
(0.7851398 -0.083610854 3.1033704e-21)
(0.84980294 -0.1785098 8.3582829e-21)
(0.91892703 -0.14194048 1.4135138e-20)
(0.96760401 -0.0052167456 5.9366655e-20)
(0.96497568 0.16916932 0)
(0.9283532 0.230513 0)
(0.89264465 0.20529335 0)
(0.86479838 0.11048578 3.0876066e-21)
(0.86137339 -0.021482001 -1.0230196e-20)
(0.91343035 -0.10061499 -7.847548e-21)
(0.98570392 -0.12189794 4.2271627e-21)
(1.048957 -0.11182684 1.7795874e-21)
(1.0957445 -0.076279026 -4.464959e-20)
(1.1140102 -0.025162244 1.9982692e-20)
(1.1003561 0.019314142 -1.7624713e-21)
(1.0704636 0.041595746 0)
(1.0424802 0.042924707 1.6774581e-22)
(1.0249603 0.033632652 -1.4539077e-21)
(1.0170181 0.02190595 -2.1881836e-21)
(1.0153666 0.011927643 6.9974904e-22)
(1.0170135 0.0049221651 -1.9213442e-22)
(1.0198215 0.00067569109 1.1219646e-21)
(1.0225715 -0.0014892314 -6.7233218e-22)
(1.0247344 -0.0022026226 -1.3050985e-21)
(1.0261353 -0.0020393668 8.899092e-22)
(1.0268198 -0.0014584435 -9.0158452e-23)
(1.026943 -0.00076289154 2.2031369e-23)
(1.0266743 -0.00013769773 3.3989713e-23)
(1.0261297 0.00034028347 -8.0475695e-22)
(1.0254564 0.00060447513 -4.1352664e-22)
(1.0247486 0.00069823739 5.1557149e-23)
(1.024146 0.00051517422 5.3559987e-22)
(1.0236837 0.00027987924 -4.9149582e-23)
(0.7676851 -0.087403473 3.5304118e-21)
(0.82842963 -0.18548373 3.632134e-21)
(0.89365759 -0.1500926 5.1139206e-21)
(0.94316913 -0.0073850752 8.282217e-20)
(0.94169993 0.17777119 -2.2729168e-20)
(0.90581526 0.24247554 3.9539797e-21)
(0.871172 0.21777406 -6.2655187e-20)
(0.84621751 0.11992084 2.2504457e-20)
(0.8437335 -0.023696481 3.0480693e-21)
(0.89648244 -0.11722278 2.9984601e-20)
(0.97609837 -0.14476322 -6.1193428e-21)
(1.0496336 -0.13592749 -2.8422046e-20)
(1.1071641 -0.096806935 -2.6057462e-21)
(1.1331589 -0.035223714 2.9231903e-20)
(1.1202213 0.022874053 1.4513309e-20)
(1.0836697 0.053862665 2.3161757e-21)
(1.0472379 0.056863014 -6.6290605e-23)
(1.0235616 0.04465258 -2.9737069e-21)
(1.0128172 0.029202437 -4.5643159e-22)
(1.0104764 0.015890167 2.5750016e-22)
(1.0126037 0.0064175407 1.9600653e-21)
(1.0164394 0.00061605668 -1.4744306e-21)
(1.0203155 -0.0024045561 -5.6838792e-22)
(1.0234779 -0.0034847086 1.7411102e-21)
(1.0256751 -0.0033548536 -1.8857526e-21)
(1.026934 -0.0026277993 -7.563734e-22)
(1.0274253 -0.0016946021 -7.8167411e-22)
(1.0273553 -0.00078941129 1.2238985e-23)
(1.0269168 -5.6672633e-05 -5.4895312e-22)
(1.0262442 0.00046778374 7.2808604e-23)
(1.0254754 0.00073663454 -2.1685551e-22)
(1.0246977 0.00080769664 -3.130484e-23)
(1.0240516 0.00058762802 -1.6536772e-22)
(1.0235599 0.0003051484 -1.5673094e-23)
(0.75174195 -0.090948744 -4.4034467e-21)
(0.80771798 -0.19184378 -4.5802006e-21)
(0.86812665 -0.15760977 2.435708e-20)
(0.91720523 -0.012363058 -2.4095949e-20)
(0.91869408 0.18427351 6.6364536e-20)
(0.88427983 0.25329741 9.6233573e-20)
(0.85077459 0.2287309 8.6207931e-21)
(0.82799766 0.12813565 0)
(0.82656589 -0.025889639 2.0370482e-20)
(0.87958142 -0.13375933 6.1266282e-20)
(0.96492783 -0.16832543 1.2625102e-20)
(1.0475104 -0.16089852 1.4955179e-20)
(1.1160891 -0.11822475 0)
(1.1501342 -0.04599524 -5.4989545e-21)
(1.1394995 0.027850264 -3.5685849e-20)
(1.097253 0.069320074 -4.4651257e-21)
(1.0523943 0.074277445 2.625857e-21)
(1.021464 0.058859742 0)
(1.0071374 0.038374077 3.5193338e-21)
(1.0040205 0.020886298 4.5487353e-21)
(1.0067557 0.0083156393 -5.3240018e-22)
(1.011855 0.00051278615 2.1373791e-21)
(1.0171486 -0.0036074546 0)
(1.0215853 -0.0051657389 -1.8275258e-21)
(1.0248021 -0.0050956241 1.3956918e-21)
(1.0268109 -0.0041905695 -1.0658514e-22)
(1.0278103 -0.0029795593 -7.758877e-22)
(1.0280486 -0.0017653202 9.3669332e-22)
(1.0277608 -0.00071009043 3.5539419e-24)
(1.0271457 9.4384773e-05 -1.7112719e-21)
(1.0263402 0.00063551839 1.7408092e-21)
(1.0254777 0.00089337565 6.2406918e-22)
(1.0246331 0.0009291696 0)
(1.0239456 0.00066587146 6.1123584e-24)
(1.0234263 0.00033128168 -4.7350585e-23)
(0.73765592 -0.094214213 -4.3765194e-21)
(0.78813828 -0.19751216 -1.1397276e-21)
(0.84278736 -0.16436142 5.8646517e-20)
(0.89029335 -0.016517204 -3.7285953e-22)
(0.89532084 0.18764723 1.8940052e-20)
(0.86344034 0.26336961 -1.6863239e-21)
(0.83193147 0.23838304 7.8780808e-20)
(0.8107255 0.13476867 -1.8343813e-21)
(0.81011937 -0.028115477 0)
(0.86300696 -0.14987135 -2.8479478e-20)
(0.95253466 -0.19194565 1.5981353e-20)
(1.0422563 -0.18580752 6.5907246e-21)
(1.1184034 -0.13969138 3.111995e-20)
(1.1605412 -0.057168506 -4.3427584e-20)
(1.1548463 0.035545552 -1.5780501e-20)
(1.1068076 0.089262021 -2.4060974e-20)
(1.0555833 0.095955597 9.2201336e-21)
(1.0181655 0.076407256 -5.7276262e-21)
(0.99955897 0.049861565 -8.6305585e-23)
(0.99561874 0.026983318 -6.4098425e-21)
(0.99919164 0.010603689 2.6955308e-21)
(1.0058387 0.00030094516 -4.6307836e-21)
(1.0128889 -0.0051962295 0)
(1.018922 -0.0073541009 -5.017447e-22)
(1.0234296 -0.007371313 3.3842788e-22)
(1.0263953 -0.0062521197 1.1510528e-21)
(1.0280514 -0.0046949631 -1.2039073e-22)
(1.0287085 -0.003102773 -4.7669353e-23)
(1.0286594 -0.001684986 7.8010391e-22)
(1.028143 -0.00053474779 0)
(1.0273527 0.00030645451 1.4419043e-21)
(1.0264158 0.00084163167 1.9628558e-21)
(1.0254615 0.0010679408 -1.0812072e-21)
(1.024554 0.0010598234 5.5874426e-23)
(1.0238281 0.00074820124 -2.6551755e-23)
(1.0232835 0.0003578349 2.2638662e-22)
(0.72580872 -0.097187125 5.1226582e-21)
(0.77016361 -0.20242797 -1.2053841e-21)
(0.81822676 -0.1703611 -2.6811395e-20)
(0.8631706 -0.020379942 9.0927322e-23)
(0.8707089 0.19140125 -3.4811425e-20)
(0.84399503 0.27259843 -7.4325295e-20)
(0.81387992 0.24865199 2.4970739e-21)
(0.79473639 0.1398154 7.8762936e-20)
(0.79467626 -0.030203555 8.5976946e-22)
(0.84695615 -0.16548773 3.1716268e-20)
(0.93910559 -0.21506587 -1.8418492e-21)
(1.0340189 -0.2101721 -2.1523162e-20)
(1.115867 -0.1605796 -1.1386989e-20)
(1.1636272 -0.068457436 -3.8478761e-20)
(1.1664231 0.045529769 1.4515413e-19)
(1.1110065 0.11379935 -4.6542188e-21)
(1.0522891 0.12222693 -3.9299812e-21)
(1.0117077 0.097786035 1.04145e-21)
(0.98976701 0.063724944 -5.3044687e-21)
(0.98478307 0.03426134 -1.8478957e-21)
(0.98959136 0.013236918 4.4597463e-22)
(0.99816248 -8.0324546e-05 -4.7483699e-21)
(1.0073462 -0.0072907436 3.9864946e-21)
(1.0153507 -0.01018735 0)
(1.0214696 -0.01031695 2.2335647e-22)
(1.0256392 -0.0089356787 2.1614242e-21)
(1.0281266 -0.00694726 -1.3393066e-21)
(1.0293199 -0.0048844396 2.2805383e-21)
(1.029588 -0.0030208577 -3.7737383e-24)
(1.0292368 -0.0014728941 -9.3078235e-22)
(1.0284914 -0.00027536751 -1.7169655e-21)
(1.0275293 0.00056629864 8.3900474e-22)
(1.0264677 0.0010777002 -5.9334739e-23)
(1.0254263 0.0012577905 -9.9222553e-22)
(1.0244598 0.0011973392 -1.5037377e-22)
(1.0236994 0.00083292077 -1.5042648e-23)
(1.023132 0.00038442402 1.2503286e-22)
(0.7165608 -0.099848184 -2.3981686e-22)
(0.75429887 -0.20652496 -1.6515085e-21)
(0.79502929 -0.17553663 -5.0659258e-20)
(0.83652697 -0.023966639 -1.4957181e-20)
(0.84633746 0.19451943 1.1773676e-21)
(0.82417166 0.28133825 -3.1553717e-21)
(0.79780405 0.26091172 6.6915745e-20)
(0.77829499 0.14898238 -3.9327345e-20)
(0.78065568 -0.034788409 0)
(0.83147413 -0.1798727 -7.5476168e-21)
(0.92501984 -0.23720535 0)
(1.0231935 -0.23365934 0)
(1.1097929 -0.18069421 -3.719367e-20)
(1.1624425 -0.079944361 6.488335e-21)
(1.1728748 0.055047945 3.1053074e-20)
(1.1165693 0.14226746 3.4343002e-20)
(1.0432093 0.15224182 -3.0827098e-20)
(0.99877768 0.12250892 8.1228196e-21)
(0.97658308 0.08000707 4.9223087e-21)
(0.97130862 0.042765797 2.1684357e-21)
(0.97759358 0.016082843 -2.6927074e-21)
(0.98858824 -0.00075961659 4.8415797e-21)
(1.0003371 -0.01001923 7.0986638e-23)
(1.0107365 -0.013819704 -2.9474393e-21)
(1.018835 -0.01409126 -3.5463111e-22)
(1.0244998 -0.01238744 6.2185528e-22)
(1.0280244 -0.0098586143 2.2874461e-22)
(1.0298842 -0.0072066181 -1.3740153e-21)
(1.0305525 -0.004790562 -8.6790219e-23)
(1.0304165 -0.0027593362 -2.6634213e-21)
(1.0297636 -0.0011487802 -1.3269086e-22)
(1.028797 5.2678115e-05 2.1726749e-23)
(1.0276731 0.00086607275 -1.53164e-21)
(1.0264936 0.0013304634 -1.075556e-21)
(1.0253716 0.0014603986 1.928133e-21)
(1.0243514 0.0013387095 2.4238525e-22)
(1.0235603 0.00091863112 -2.2970266e-23)
(1.0229725 0.00041070949 0)
(0.71029083 -0.10222633 -1.0253038e-20)
(0.74093184 -0.20978648 -7.6073041e-22)
(0.77371304 -0.17982715 -1.9906002e-20)
(0.81101873 -0.027217402 -2.2946513e-20)
(0.82270129 0.1970084 -2.2947096e-20)
(0.80537452 0.2892626 1.6751958e-20)
(0.78253204 0.27154064 7.2959513e-21)
(0.76438942 0.16273793 -2.4433139e-19)
(0.76461717 -0.031931058 -9.2313265e-22)
(0.8183822 -0.19575895 -9.6098579e-20)
(0.91053677 -0.25799985 -4.35839e-21)
(1.01035 -0.25585715 0)
(1.0998686 -0.20013572 0)
(1.1580201 -0.090542974 5.197527e-20)
(1.1720137 0.062747648 -1.3927733e-19)
(1.1235865 0.17200378 -7.1779884e-20)
(1.0375632 0.1859269 1.6386027e-20)
(0.98030709 0.14930793 7.3415736e-21)
(0.95807047 0.09816381 1.1586115e-21)
(0.95464926 0.052126757 1.4343549e-21)