/*--------------------------------*- C++ -*----------------------------------*\
  =========                 |
  \\      /  F ield         | OpenFOAM: The Open Source CFD Toolbox
   \\    /   O peration     | Website:  https://openfoam.org
    \\  /    A nd           | Version:  8
     \\/     M anipulation  |
\*---------------------------------------------------------------------------*/
FoamFile
{
    version     2.0;
    format      ascii;
    class       volVectorField;
    location    "200.966377299857271";
    object      U_0;
}
// * * * * * * * * * * * * * * * * * * * * * * * * * * * * * * * * * * * * * //

dimensions      [0 1 -1 0 0 0 0];

internalField   nonuniform List<vector> 
9200
(
(1.0369135 0.00060965393 -2.6568319e-24)
(1.0371087 0.0019298546 7.7171065e-22)
(1.0350104 0.0006018408 0)
(1.0374334 0.0031078365 -4.088039e-22)
(1.0351645 0.0019197468 5.6238763e-22)
(1.0342139 0.00059549057 0)
(1.0378571 0.0042804282 -4.0930602e-23)
(1.0354541 0.0030777682 4.9498533e-24)
(1.0343665 0.0019041106 0)
(1.0330555 0.00058028024 0)
(1.0383219 0.0053967828 8.4806045e-22)
(1.0358245 0.0042133711 5.3878492e-22)
(1.0346569 0.0030550348 3.3216264e-22)
(1.0331864 0.0018639872 1.9722911e-23)
(1.0321338 0.00056068616 3.5062319e-25)
(1.0387819 0.0064692675 8.0981766e-22)
(1.0362507 0.0052509085 -2.984313e-23)
(1.035045 0.0041883137 1.1232498e-21)
(1.0334499 0.0029965162 4.6654884e-22)
(1.0322517 0.001807478 2.6565183e-23)
(1.0312187 0.00053337713 -7.9444e-22)
(1.0391866 0.0074734196 8.0671664e-22)
(1.0367365 0.0061862716 8.0413266e-22)
(1.0355288 0.0052384996 -6.8761634e-22)
(1.0338041 0.0041217178 -5.1835529e-23)
(1.0324942 0.0029122409 4.028778e-22)
(1.0313167 0.0017248263 4.111846e-22)
(1.0304015 0.00050097488 8.0732331e-23)
(1.039525 0.0083933411 2.9842518e-22)
(1.0372495 0.0069752234 6.3331605e-22)
(1.03608 0.0062019482 8.3269145e-22)
(1.0342654 0.0051931473 5.4275722e-23)
(1.0328193 0.0040188601 -1.0941211e-21)
(1.0315257 0.0027817225 -4.8631036e-22)
(1.0304845 0.0016235083 -4.0917045e-22)
(1.02966 0.00046513631 6.7056295e-22)
(1.0397135 0.009230443 -9.9311775e-22)
(1.0377419 0.007569942 7.801251e-22)
(1.0367048 0.0070401392 2.0610561e-23)
(1.0348456 0.0062147062 4.0924934e-22)
(1.0332527 0.0051004583 1.4940663e-22)
(1.0317917 0.0038423131 -1.6117197e-21)
(1.0306671 0.0026170602 -2.9607743e-23)
(1.0297307 0.0015081414 -6.6509373e-22)
(1.0290011 0.00042881307 -1.3521141e-21)
(1.0396912 0.0099101234 6.9440356e-22)
(1.0381828 0.0079330678 -4.717189e-22)
(1.0373835 0.0077021731 -3.5187198e-23)
(1.0355659 0.0071609863 -1.1962095e-22)
(1.0338058 0.0061809198 -1.8042911e-22)
(1.0321315 0.0048957009 2.9580589e-22)
(1.0308858 0.0036098764 5.6797402e-22)
(1.0298922 0.0024257206 8.5900255e-22)
(1.0290655 0.0013885791 4.953715e-22)
(1.028417 0.00039424796 1.2677781e-22)
(1.0393054 0.010438429 -3.4805132e-22)
(1.0386124 0.0079831445 -1.5950624e-23)
(1.0382424 0.0081195588 6.4624172e-22)
(1.0364859 0.0080027102 -7.1116171e-22)
(1.0344987 0.0072635284 5.6479316e-22)
(1.032553 0.0059890842 -1.5511624e-21)
(1.0311392 0.0045952672 1.1485925e-22)
(1.0300727 0.0033318753 1.2160659e-21)
(1.0292158 0.0022262906 -5.4778105e-22)
(1.0284804 0.0012731425 1.2388071e-21)
(1.0279 0.00036413577 -1.3487593e-22)
(1.0384854 0.010658354 4.4821171e-23)
(1.0391214 0.0074428202 -1.1990319e-22)
(1.0393665 0.0083240747 -6.6305798e-22)
(1.0376218 0.0087116008 0)
(1.0353607 0.0083784534 2.9647353e-23)
(1.033074 0.0071703867 -3.6269614e-22)
(1.0314098 0.0056212753 -2.9662146e-22)
(1.030256 0.0042180553 -6.2657056e-22)
(1.0293767 0.0030384687 -4.4472958e-22)
(1.0286289 0.0020355216 -6.7518569e-22)
(1.0279655 0.0011695645 -4.130559e-22)
(1.0274402 0.00033961173 1.0382303e-22)
(1.0368599 0.010486054 1.7483826e-23)
(1.0394873 0.0062226397 -1.0459126e-22)
(1.0410077 0.0082026088 0)
(1.0389454 0.0092820401 0)
(1.036357 0.0095827442 -2.9815179e-22)
(1.0336635 0.0085013838 -2.132856e-22)
(1.0316821 0.0067527995 -2.8317991e-22)
(1.0304017 0.0051134206 8.5732653e-22)
(1.0295281 0.0038129446 1.0186014e-22)
(1.0287882 0.0027582219 5.5446952e-24)
(1.0281194 0.0018671768 5.6694801e-22)
(1.0275096 0.0010814441 -4.1981688e-22)
(1.0270276 0.00032000199 1.1201338e-21)
(1.0345731 0.0097503059 -7.8256491e-23)
(1.0399994 0.0040744787 1.737651e-23)
(1.0431976 0.0075573532 -6.7100052e-22)
(1.0408143 0.0098685777 5.3569956e-22)
(1.0374943 0.010949883 -3.3072429e-22)
(1.0342258 0.010057317 -1.3834105e-22)
(1.0319002 0.0080500966 3.1551545e-22)
(1.0304801 0.0060680909 3.3577867e-23)
(1.0296202 0.0045535462 1.1138458e-21)
(1.0289414 0.0034271238 1.0220912e-21)
(1.0282905 0.0025135557 1.9433266e-22)
(1.0276724 0.0017282327 5.6627214e-22)
(1.0271011 0.0010074989 3.5072069e-22)
(1.0266546 0.0003040516 -2.6736047e-22)
(1.031791 0.0084034028 -4.2062704e-22)
(1.0403527 0.0007613749 2.4840274e-22)
(1.0459532 0.0062481705 -8.0926399e-23)
(1.0434846 0.010383026 -3.3948726e-23)
(1.0390875 0.012547759 -2.4939711e-23)
(1.0347924 0.011907912 2.3811363e-22)
(1.0319616 0.009571223 3.4962031e-22)
(1.0304246 0.0071113054 -3.871648e-22)
(1.0296165 0.0052792225 -2.3551134e-22)
(1.0290429 0.0040233372 -1.4699215e-22)
(1.0284707 0.0030974236 -1.1997983e-23)
(1.0278613 0.0023168005 -2.842554e-22)
(1.0272727 0.0016163487 -5.0798143e-22)
(1.0267312 0.00094386732 1.7773008e-22)
(1.026316 0.00029019648 -1.3983828e-22)
(1.0282773 0.0064591525 -1.4901965e-22)
(1.0407279 -0.0039067391 -1.5860624e-22)
(1.0494884 0.0040911638 9.3588481e-22)
(1.047089 0.010803821 -1.0322016e-21)
(1.0412917 0.014547356 5.9022033e-22)
(1.0354401 0.014206089 -1.2579974e-21)
(1.0317978 0.011399404 -2.5295665e-23)
(1.0301131 0.0082749482 8.5989576e-23)
(1.0294566 0.0059835159 -1.7222957e-22)
(1.0290643 0.0045383654 -6.950095e-22)
(1.0286275 0.0035837769 -1.3383149e-21)
(1.0280798 0.0028445306 -1.2953308e-22)
(1.0274785 0.0021650165 1.4475197e-22)
(1.0269085 0.0015235363 1.6247522e-22)
(1.0263943 0.00088552064 1.2667955e-22)
(1.0260089 0.0002769899 1.2547591e-22)
(1.0236234 0.0037609059 0)
(1.0412315 -0.0099603058 -3.0225751e-22)
(1.0539145 0.00075951744 -2.1164954e-23)
(1.0519347 0.011055358 0)
(1.04425 0.017125907 0)
(1.0361949 0.017192264 0)
(1.0313046 0.013682121 1.9889578e-22)
(1.0293965 0.0096065424 6.9290988e-22)
(1.0290165 0.0066589165 1.2074189e-21)
(1.0289641 0.0049327481 4.8915432e-22)
(1.0287502 0.0039503067 2.4938996e-22)
(1.0283109 0.0032682966 3.0312039e-22)
(1.0277325 0.0026659053 8.7949127e-23)
(1.0271248 0.0020448032 -1.7404103e-22)
(1.0265733 0.0014395903 -1.397318e-22)
(1.0260879 0.0008277764 -5.7326837e-23)
(1.0257318 0.00026339434 0)
(1.0178303 0.0002435793 -1.3770312e-21)
(1.0413741 -0.017559576 -2.0067092e-22)
(1.0589888 -0.0036796634 -7.2502569e-21)
(1.0582378 0.011084556 -2.720963e-21)
(1.0482087 0.020397752 -1.0786645e-21)
(1.0370777 0.021102604 0)
(1.0304045 0.016595172 1.1484812e-21)
(1.0281326 0.011176583 -6.6148421e-22)
(1.0281302 0.0072851814 -5.0874398e-22)
(1.0286487 0.0051621451 1.5284473e-21)
(1.0288201 0.0041376162 -2.7371531e-22)
(1.0285618 0.0035644248 3.1290046e-22)
(1.0280287 0.0030748666 1.2989341e-22)
(1.0273994 0.0025373247 -7.0133609e-22)
(1.0267918 0.0019379792 -4.4239506e-22)
(1.0262651 0.0013550174 -3.1281199e-22)
(1.0258115 0.00076737637 -1.679148e-22)
(1.0254841 0.00024892364 -4.824305e-23)
(1.0108711 -0.0040183268 2.3912973e-22)
(1.0408888 -0.026784986 -8.6154034e-23)
(1.0646815 -0.0093637225 1.0398558e-21)
(1.0654543 0.010892261 -4.5131932e-21)
(1.0533061 0.02477885 1.7242694e-22)
(1.0380831 0.026188436 -1.8128979e-21)
(1.0289868 0.020345953 -4.2172952e-21)
(1.0261582 0.013050734 -3.2043312e-21)
(1.02666 0.0078440961 -1.0231086e-21)
(1.027971 0.0051505436 -7.160682e-22)
(1.0287961 0.0040819273 -3.3557905e-22)
(1.02884 0.0036774166 -4.4748792e-22)
(1.0283843 0.0033776114 -3.8612153e-22)
(1.0277365 0.0029620365 2.0809475e-22)
(1.0270707 0.0024273886 2.9256954e-22)
(1.0264787 0.0018273911 4.0890597e-23)
(1.0259852 0.0012631909 -3.9150811e-23)
(1.0255655 0.00070293921 -4.7503117e-23)
(1.0252654 0.00023366201 2.9557407e-23)
(1.002553 -0.008978022 2.2064081e-21)
(1.0394112 -0.037519629 9.926967e-22)
(1.0708242 -0.016478976 2.7794873e-20)
(1.0736671 0.010411083 2.6962826e-21)
(1.0589791 0.030283463 -1.6627412e-21)
(1.0391293 0.032992048 -1.0101764e-21)
(1.0268528 0.025140865 4.2337914e-22)
(1.0232667 0.015317522 -4.6574986e-22)
(1.0244373 0.008297484 -5.2893413e-22)
(1.0268346 0.0047921234 -1.7518114e-21)
(1.0285903 0.0036678801 -5.6464771e-22)
(1.0291675 0.0035386131 3.8806863e-22)
(1.0288392 0.0035345528 3.8055907e-22)
(1.0281622 0.0033229287 -4.1313917e-23)
(1.0274192 0.0028767713 2.7560583e-22)
(1.0267464 0.002308044 6.0927618e-23)
(1.0261898 0.0017013586 2.7348396e-22)
(1.0257365 0.0011611982 7.6731729e-23)
(1.0253507 0.00063497092 1.9609965e-23)
(1.0250747 0.00021816835 -7.2155383e-23)
(0.99253807 -0.014610145 1.940026e-22)
(1.0366348 -0.049601488 1.4953314e-21)
(1.0766111 -0.024992763 -5.0577337e-21)
(1.0826372 0.0097106674 -7.4826409e-21)
(1.0651941 0.037097676 -1.1208488e-21)
(1.0399033 0.041480365 4.6431813e-22)
(1.0237458 0.031404399 3.6490931e-21)
(1.0191688 0.018059495 7.9727631e-21)
(1.021247 0.0086002488 1.2989751e-21)
(1.0251246 0.0039733172 0)
(1.0281633 0.0027303063 2.8979293e-22)
(1.0295274 0.0030199078 9.5620876e-22)
(1.0294822 0.003495946 1.6961398e-23)
(1.0287483 0.0035859392 -6.8691716e-22)
(1.0278697 0.0033123782 -2.9679185e-22)
(1.0270744 0.0027734426 1.2494842e-22)
(1.0264354 0.0021598149 3.7785387e-22)
(1.0259318 0.0015546945 1.5587635e-22)
(1.0255218 0.0010499214 -1.297932e-22)
(1.0251668 0.00056556455 3.2309403e-23)
(1.0249103 0.00020332381 -1.2030055e-22)
(0.98038992 -0.020568885 -1.9766613e-21)
(1.0314317 -0.062575251 1.6093701e-21)
(1.0814892 -0.034897798 -2.5207023e-20)
(1.0916924 0.0089223435 2.0015462e-20)
(1.071777 0.045547587 6.4927267e-21)
(1.0401898 0.051893355 -1.6166063e-21)
(1.0195892 0.039111622 0)
(1.0134623 0.021444932 -2.2682211e-21)
(1.0168245 0.008695562 -2.7032342e-21)
(1.0226764 0.0025517114 -1.9642834e-21)
(1.0274759 0.0011069933 5.359041e-22)
(1.0299603 0.0019459461 4.4661403e-22)
(1.0303475 0.0031520695 -1.598892e-22)
(1.0295343 0.0037528256 2.3526333e-22)
(1.0284732 0.0037248788 2.1130211e-22)
(1.0274899 0.003277156 -2.0970516e-22)
(1.0267191 0.0026197305 -1.6033217e-23)
(1.0261519 0.0019725226 -6.2791737e-23)
(1.025712 0.0013886356 2.0368236e-22)
(1.0253428 0.00093342538 3.5468099e-23)
(1.0250124 0.00049788279 -8.921479e-23)
(1.0247694 0.00019013614 0)
(0.96607399 -0.026688173 2.2916832e-22)
(1.0228084 -0.075795646 -7.5343756e-22)
(1.0827571 -0.045879127 7.8736841e-22)
(1.1004121 0.0077140706 2.7356534e-20)
(1.0787517 0.055581753 5.291931e-21)
(1.039747 0.064571025 -1.8655407e-21)
(1.0140546 0.048458347 4.0899872e-21)
(1.0061106 0.02551952 4.8147649e-21)
(1.0107996 0.008498086 6.8918274e-22)
(1.0193069 0.0003696706 3.621851e-22)
(1.0264505 -0.0013931762 -6.8174687e-23)
(1.0304955 0.00014021387 -1.1067198e-21)
(1.031549 0.0023717645 -3.659702e-23)
(1.0306983 0.00380075 1.5865576e-21)
(1.0292791 0.0041537889 6.6697901e-22)
(1.0280145 0.0038382081 2.0094226e-22)
(1.0270511 0.0031554905 -2.3612919e-22)
(1.0263812 0.0023975114 1.2988674e-22)
(1.02591 0.0017457043 8.1664904e-23)
(1.0255359 0.001209654 -1.1494018e-22)
(1.0251991 0.00081772802 0)
(1.0248851 0.00043561243 2.6283723e-22)
(1.0246488 0.00017956109 -3.9490535e-24)
(0.94990269 -0.032891155 -1.6098581e-21)
(1.011626 -0.088929488 -7.3983676e-21)
(1.0786776 -0.057871493 -3.3551979e-20)
(1.103691 0.0048366615 -1.6249581e-20)
(1.0879587 0.066504849 2.0645445e-20)
(1.0396379 0.079292133 0)
(1.0067729 0.059714273 1.1675716e-21)
(0.99687463 0.030265155 5.5633736e-22)
(1.0028986 0.0079818987 3.881732e-21)
(1.0147827 -0.0027567102 4.4078916e-21)
(1.0249985 -0.0049889509 -8.2016882e-22)
(1.0311654 -0.0026017338 -6.169578e-22)
(1.0331835 0.0010062911 3.7453643e-22)
(1.0323785 0.0036360413 2.6433244e-22)
(1.0304674 0.0046426075 -1.6183635e-22)
(1.028698 0.0045204921 -9.5138633e-22)
(1.027433 0.0038039582 -1.0740068e-21)
(1.0266084 0.0029114564 4.7002706e-23)
(1.026089 0.0021045857 -7.2984164e-22)
(1.0257226 0.0014900488 5.5497431e-22)
(1.0254058 0.0010275312 4.269496e-22)
(1.0250889 0.00070961128 -4.1513348e-22)
(1.0247812 0.0003823931 2.558188e-22)
(1.0245442 0.00017237871 -1.5510688e-24)
(0.93227698 -0.039018121 -1.1038505e-21)
(0.99798844 -0.10176847 -2.5639383e-21)
(1.0712976 -0.070172617 1.163291e-20)
(1.1035039 0.00056402108 1.1285779e-19)
(1.1006487 0.077643966 -1.9788122e-20)
(1.0423039 0.095747242 1.8619826e-20)
(0.99852677 0.072727374 1.3806018e-21)
(0.98532169 0.035918882 -7.90096e-21)
(0.99321884 0.0069725222 3.6535272e-22)
(1.0087646 -0.0070642147 1.6561325e-21)
(1.0230201 -0.0099274267 -5.8849332e-22)
(1.0319996 -0.0065267555 1.1273538e-21)
(1.0353975 -0.0011222858 2.416465e-25)
(1.0347119 0.0031835654 -7.1761532e-23)
(1.0322087 0.0052038098 -9.4405558e-22)
(1.0296797 0.0054116863 8.2715527e-23)
(1.0278838 0.0046470874 -1.9430902e-22)
(1.0268183 0.0035608274 5.1426469e-23)
(1.0262157 0.0025422617 0)
(1.0258655 0.0017533241 -2.0818765e-23)
(1.0255974 0.0012216661 3.5104682e-24)
(1.0253209 0.00085330502 -1.9370735e-23)
(1.0250083 0.00061556365 6.2839459e-23)
(1.0246964 0.00034122397 -3.5593121e-22)
(1.0244515 0.00016913424 -1.5824094e-22)
(0.91366159 -0.044911872 -5.4694571e-22)
(0.98199906 -0.11405465 -2.8958223e-21)
(1.0597405 -0.082567223 -1.3951159e-20)
(1.1002321 -0.0041707583 -1.5622159e-20)
(1.1031168 0.088158628 -7.9992926e-20)
(1.0470072 0.11502674 4.9862873e-22)
(0.99132133 0.088053455 1.8193677e-21)
(0.97144503 0.042315066 5.050706e-22)
(0.98159068 0.005474034 5.7032187e-21)
(1.0013061 -0.01267108 -1.3855018e-22)
(1.0203745 -0.016484154 1.3973582e-21)
(1.0330338 -0.011913041 -6.3166628e-23)
(1.0383584 -0.0042331001 -8.2697511e-23)
(1.0379306 0.0023433914 -1.450586e-22)
(1.0346671 0.0058568775 -3.4348574e-22)
(1.0311046 0.006619925 1.5397988e-21)
(1.028481 0.0058069961 3.1374761e-21)
(1.0269875 0.0044355776 -1.4647033e-23)
(1.0262569 0.0031061404 -3.6518005e-22)
(1.0259148 0.0020694843 4.6850844e-23)
(1.0257266 0.0013681572 6.6826338e-22)
(1.0255355 0.00095884229 4.0443277e-22)
(1.025277 0.00069746528 -5.8743676e-22)
(1.0249528 0.00054084362 4.7164096e-22)
(1.0246261 0.00031402708 -2.9017416e-22)
(1.0243659 0.00017009523 1.2452077e-23)
(0.89457219 -0.050455394 3.9284685e-23)
(0.96424951 -0.12563661 -2.2944263e-21)
(1.0444351 -0.094622604 4.9322133e-20)
(1.0918453 -0.0075427579 -9.2059968e-20)
(1.0927142 0.098064826 7.9722582e-20)
(1.0459816 0.13520748 -2.3019365e-20)
(0.98545025 0.10616872 7.790566e-21)
(0.95646723 0.049875051 4.6816252e-21)
(0.96747749 0.0032761385 -8.7875104e-21)
(0.99266824 -0.019717378 -2.6848206e-21)
(1.0168469 -0.024944652 3.3634493e-22)
(1.0342831 -0.019046639 -1.2538035e-21)
(1.0422397 -0.0085902803 -1.3488981e-22)
(1.0423106 0.00099245899 1.1593834e-22)
(1.0380959 0.0066167786 -2.3529067e-22)
(1.0331186 0.0082687871 3.5542905e-22)
(1.0293142 0.0074490211 -3.8704918e-22)
(1.0271201 0.0056696447 6.7772148e-22)
(1.0261503 0.0038883331 -4.1765668e-22)
(1.0258175 0.0024771273 3.1557706e-22)
(1.0257323 0.0015299193 0)
(1.0256793 0.00098267417 4.1429907e-22)
(1.0255322 0.00071968629 -8.1786946e-23)
(1.0252673 0.00056913965 0)
(1.0249164 0.00048884475 -5.9090721e-22)
(1.0245647 0.00030154538 -6.5915284e-25)
(1.0242844 0.00017518738 1.5262213e-22)
(0.87551145 -0.055643736 3.9292194e-22)
(0.94533626 -0.13639686 -1.5275071e-21)
(1.0261799 -0.10594493 4.373571e-20)
(1.0779692 -0.010628396 -8.0745135e-21)
(1.0778294 0.10873291 1.582638e-20)
(1.0354757 0.15387372 2.9180849e-20)
(0.97993648 0.12614176 2.8696374e-24)
(0.94250314 0.05924007 -6.9840602e-21)
(0.95104358 0.00024846625 1.1279918e-21)
(0.98252129 -0.028253136 4.6313767e-21)
(1.0126264 -0.035399671 -1.1068253e-21)
(1.0356697 -0.028255905 1.3769286e-21)
(1.0471918 -0.014487845 1.0613818e-21)
(1.0481675 -0.0010374094 -1.2556817e-22)
(1.0428107 0.00751894 -4.3623864e-23)
(1.0359283 0.010503746 -3.5177686e-22)
(1.0304638 0.0097662497 -2.2832796e-21)
(1.0272352 0.0074470664 -6.0508158e-22)
(1.0258321 0.0050053124 -2.1808419e-22)
(1.0254829 0.00306306 -1.669077e-21)
(1.0255443 0.0017337851 4.936476e-22)
(1.0256804 0.00097246914 2.2681951e-22)
(1.0257175 0.00062553732 -1.9905223e-23)
(1.0255782 0.00051923234 0)
(1.0252843 0.00047542893 0)
(1.0248923 0.00046122012 4.4006196e-23)
(1.0245081 0.00030349977 -3.8565692e-22)
(1.0242034 0.00018419153 -2.7921844e-22)
(0.85686958 -0.060412364 0)
(0.92585629 -0.14627972 -5.6747732e-21)
(1.0058738 -0.11637642 -4.2314466e-20)
(1.059889 -0.013354293 -4.6415255e-20)
(1.060857 0.11937244 -6.5378843e-20)
(1.0199321 0.17094375 6.306249e-22)
(0.97178358 0.14562744 4.8980685e-21)
(0.93007487 0.070711398 -1.0665684e-20)
(0.93312108 -0.0031148468 7.3953994e-21)
(0.97058824 -0.038609162 -1.8251889e-21)
(1.0079434 -0.047831052 1.0183175e-22)
(1.0369463 -0.039857572 1.3361571e-21)
(1.053404 -0.022233602 5.0945472e-21)
(1.0558231 -0.0039447346 -1.8585754e-22)
(1.0491744 0.008555865 -4.4867945e-22)
(1.0397969 0.013503551 -5.392458e-22)
(1.0320324 0.012993464 -2.7610501e-22)
(1.0273283 0.0099839364 -7.8795988e-22)
(1.0252538 0.0066218275 1.0677187e-21)
(1.024802 0.0039066749 -1.4431098e-21)
(1.0250569 0.0020456714 4.0801494e-22)
(1.0254597 0.0009488518 2.9962315e-22)
(1.0257543 0.000450569 5.6269747e-23)
(1.0258278 0.0003199084 -1.47217e-21)
(1.025662 0.00036818723 -2.2158782e-22)
(1.0253203 0.00042080685 -8.1815373e-24)
(1.0248753 0.00045782852 6.195439e-22)
(1.0244544 0.00031895159 -2.4557787e-22)
(1.0241198 0.00019702871 3.6701305e-22)
(0.83903747 -0.064830969 2.6065585e-21)
(0.90633953 -0.15524892 0)
(0.9843277 -0.1257683 0)
(1.0387257 -0.015686895 0)
(1.0404003 0.12989585 1.8027942e-20)
(1.0013644 0.18697265 -4.0700228e-20)
(0.95835243 0.16374412 4.7577115e-21)
(0.91789742 0.083814301 2.2573118e-21)
(0.91477127 -0.006076799 8.774687e-21)
(0.95682132 -0.050748156 -6.939928e-21)
(1.0024245 -0.062399596 4.384675e-21)
(1.0384702 -0.05404725 -6.340475e-22)
(1.0609864 -0.03227241 -4.0882655e-21)
(1.0656797 -0.0079628461 1.3240262e-22)
(1.057621 0.0097571643 -2.4815756e-21)
(1.0450121 0.017497398 -6.8163094e-22)
(1.0341465 0.017422466 -1.3096653e-21)
(1.0273835 0.013535709 5.33853e-22)
(1.0243357 0.0089316026 1.7988023e-21)
(1.0236714 0.0051251308 8.5685749e-22)
(1.0241446 0.0025058435 -4.5855155e-22)
(1.0249116 0.00093834383 -3.8623914e-22)
(1.0255651 0.00019736956 1.0376406e-21)
(1.0259381 1.6251613e-08 -8.7945085e-22)
(1.0259951 8.3673247e-05 1.4051378e-22)
(1.0257727 0.00027310792 -3.0859329e-22)
(1.0253662 0.00040669398 7.7835389e-22)
(1.0248627 0.00047563557 4.1179184e-23)
(1.0243976 0.00034841407 9.1160177e-22)
(1.0240313 0.00021334888 1.846238e-22)
(0.82056998 -0.068745708 8.5484117e-22)
(0.88731315 -0.16343592 -6.8508049e-21)
(0.96231058 -0.13429907 0)
(1.0158234 -0.017686496 0)
(1.0179381 0.13981859 0)
(0.97997112 0.20206441 0)
(0.9401623 0.18056325 0)
(0.90364248 0.097208612 -6.2284601e-22)
(0.89646255 -0.0081218921 -2.8048757e-21)
(0.94144915 -0.064339909 4.0262458e-21)
(0.99578833 -0.079212874 -9.1186768e-22)
(1.0401931 -0.070678163 3.0721808e-21)
(1.0697968 -0.045198273 9.6300105e-21)
(1.0783413 -0.013453864 -8.0370531e-21)
(1.0686938 0.011151498 3.7232185e-22)
(1.0519238 0.022761208 -1.107716e-21)
(1.03692 0.02340738 9.5081278e-22)
(1.0273718 0.018414302 1.0134857e-21)
(1.0229642 0.012155483 -1.2967567e-21)
(1.0219568 0.0068605212 -2.5562748e-22)
(1.0226686 0.0031736968 5.6921684e-23)
(1.0239088 0.00094687835 -3.3476634e-22)
(1.0250566 -0.00015103739 -5.4135556e-23)
(1.025844 -0.00046822032 -4.3836906e-22)
(1.0262124 -0.00035759272 -1.0408356e-22)
(1.0262053 -7.2239079e-05 1.514156e-21)
(1.0258993 0.00023652794 3.4359413e-22)
(1.0254091 0.00042910398 -3.4456255e-22)
(1.0248438 0.00052630174 6.6471717e-24)
(1.0243341 0.00039164429 -6.083902e-22)
(1.0239357 0.00023272385 -1.1030779e-22)
(0.80138687 -0.072832811 -8.2677173e-21)
(0.86724895 -0.17126144 -6.1921821e-21)
(0.94017105 -0.14143002 -2.181673e-20)
(0.99205295 -0.019358187 -6.1951448e-20)
(0.994247 0.14907643 0)
(0.95728106 0.21614566 0)
(0.91951926 0.19599474 3.7994728e-21)
(0.88691685 0.10992452 -6.5017343e-21)
(0.87831986 -0.0092926486 -8.218484e-22)
(0.92494856 -0.079009236 7.3945485e-22)
(0.98799155 -0.098145631 2.9168633e-21)
(1.0415358 -0.089954908 7.6758217e-21)
(1.0796275 -0.060860801 -5.8143419e-21)
(1.093833 -0.020787024 1.7376115e-21)
(1.0831156 0.012630343 5.7624032e-21)
(1.0609892 0.029566067 -3.3618805e-22)
(1.0404624 0.031366615 1.7312567e-21)
(1.0272226 0.024970857 -8.928701e-23)
(1.0209913 0.016545802 -3.8255293e-21)
(1.019483 0.0092678865 4.8914031e-22)
(1.0204582 0.0041228536 -2.4048931e-21)
(1.0223031 0.00098771825 -3.985811e-22)
(1.0241031 -0.00061737384 1.946508e-21)
(1.0254674 -0.001136008 1.2824354e-22)
(1.0262669 -0.0010162053 -7.842361e-22)
(1.0265546 -0.00061205917 9.4875718e-22)
(1.0264417 -0.00014651828 4.4811026e-22)
(1.0260278 0.00025596203 3.0835614e-22)
(1.0254515 0.00049186402 -4.6335323e-22)
(1.0248177 0.00059971587 -1.8781381e-23)
(1.0242622 0.00044630234 -2.2427478e-22)
(1.0238318 0.0002545838 -9.2157234e-24)
(0.78295031 -0.076667604 3.3686253e-21)
(0.84601844 -0.17888111 9.1383681e-21)
(0.91663794 -0.14922571 1.6592514e-20)
(0.96814118 -0.020154154 5.838162e-20)
(0.97025656 0.15789308 0)
(0.93422966 0.22926806 0)
(0.89779177 0.21007016 0)
(0.8686524 0.12140008 3.3916898e-21)
(0.86050451 -0.01000672 -8.712244e-21)
(0.90782924 -0.094309589 -7.0106643e-21)
(0.97902879 -0.11906901 3.9414078e-21)
(1.042312 -0.11182723 1.5181445e-21)
(1.0901724 -0.079366896 -4.0899004e-20)
(1.1112986 -0.030329562 1.8448098e-20)
(1.1008424 0.014356849 -1.5337844e-21)
(1.0727544 0.03845755 0)
(1.0449799 0.041705345 4.4505684e-23)
(1.0268766 0.033591977 -1.3826233e-21)
(1.0182421 0.022370049 -2.2060753e-21)
(1.0160365 0.012505544 6.9166028e-22)
(1.0173134 0.0054335064 -1.6069163e-22)
(1.0199139 0.0010663401 1.1206643e-21)
(1.0225635 -0.001222456 -6.6273786e-22)
(1.0246915 -0.0020466818 -1.3001464e-21)
(1.0260953 -0.001961172 8.8751977e-22)
(1.0267979 -0.00142827 -8.8806243e-23)
(1.0269413 -0.00075956892 2.1064682e-23)
(1.0266885 -0.00014595948 3.3527443e-23)
(1.026154 0.00032866676 -7.9089802e-22)
(1.0254863 0.00059366204 -4.0587936e-22)
(1.0247814 0.00069042941 5.2122185e-23)
(1.0241801 0.00051061913 4.9431066e-22)
(1.0237185 0.00027839185 -3.4774554e-23)
(0.7656724 -0.080310715 3.9985968e-21)
(0.82500297 -0.18593854 3.4510399e-21)
(0.891565 -0.1575454 1.0935387e-20)
(0.94366354 -0.023040668 8.2330773e-20)
(0.94687748 0.16598785 -2.4075351e-20)
(0.91158562 0.24133613 4.0982411e-21)
(0.87612992 0.22281206 -6.4388377e-20)
(0.84984926 0.13158937 2.3402867e-20)
(0.84294148 -0.010644078 2.5759747e-21)
(0.89043354 -0.10981995 2.7904186e-20)
(0.96861523 -0.14148092 -5.9221829e-21)
(1.0420477 -0.13583937 -2.4476332e-20)
(1.1005896 -0.10050938 -2.6743488e-21)
(1.1299232 -0.041816268 2.8585844e-20)
(1.1210383 0.016231286 1.5276083e-20)
(1.0868558 0.04966579 2.2452295e-21)
(1.0506785 0.055273994 -1.4175404e-22)
(1.0261834 0.044678938 -3.0822442e-21)
(1.0144768 0.029908549 -4.3914936e-22)
(1.0113757 0.01673756 2.6767692e-22)
(1.0129945 0.0071639777 1.9549988e-21)
(1.0165395 0.0011852837 -1.4357894e-21)
(1.0202754 -0.0020112634 -5.6897041e-22)
(1.0233893 -0.0032499081 1.7370044e-21)
(1.0255914 -0.0032358336 -1.8823053e-21)
(1.0268764 -0.00258031 -7.5457771e-22)
(1.0273975 -0.0016862181 -7.7690306e-22)
(1.027353 -0.0007996779 9.9659124e-24)
(1.0269329 -7.3127459e-05 -5.4280001e-22)
(1.0262708 0.00045151002 7.1064785e-23)
(1.0255074 0.00072347169 -2.1129689e-22)
(1.0247321 0.00079877097 -3.0915407e-23)
(1.0240869 0.00058276579 -1.4867368e-22)
(1.0235955 0.00030361871 -4.225768e-23)
(0.74994074 -0.083733224 -4.9011518e-21)
(0.80468488 -0.1923914 -4.3622997e-21)
(0.86625971 -0.16521773 1.548044e-20)
(0.91760984 -0.028622464 -2.3479392e-20)
(0.92374235 0.17186172 7.169314e-20)
(0.88991018 0.25223178 8.3295434e-20)
(0.85544652 0.23406092 9.2997616e-21)
(0.83137949 0.14048829 0)
(0.82579136 -0.01135116 1.9278537e-20)
(0.87318928 -0.12521953 5.7602743e-20)
(0.95680478 -0.16465897 1.1628652e-20)
(1.0393806 -0.16093701 1.2745406e-20)
(1.1087289 -0.12286443 0)
(1.1467986 -0.05443593 -6.289804e-21)
(1.1410882 0.018961068 -3.7902602e-20)
(1.1017906 0.063766322 -4.3515561e-21)
(1.0570643 0.072261339 3.4642848e-21)
(1.0250071 0.059018847 0)
(1.0093461 0.03942205 3.4988888e-21)
(1.0051997 0.022101511 4.5503295e-21)
(1.0072528 0.0093800857 -4.4161068e-22)
(1.0119559 0.0013238895 2.1468218e-21)
(1.0170581 -0.0030439046 0)
(1.0214296 -0.0048236817 -1.8178648e-21)
(1.0246535 -0.0049193477 1.3941952e-21)
(1.026701 -0.0041187546 -1.0631664e-22)
(1.0277446 -0.0029662098 -7.7528327e-22)
(1.0280212 -0.0017793365 9.3164484e-22)
(1.0277617 -0.00073341855 3.8573356e-24)
(1.0271649 7.035643e-05 -1.6870357e-21)
(1.0263698 0.00061548313 1.7083272e-21)
(1.0255122 0.00087853751 6.0946094e-22)
(1.0246693 0.00091970968 0)
(1.0239822 0.00066095414 5.4606916e-24)
(1.0234628 0.00032978228 -5.5073493e-23)
(0.73609365 -0.086901752 -5.1060769e-21)
(0.78553296 -0.19815375 4.8907316e-22)
(0.84117504 -0.17210717 4.801442e-20)
(0.89064647 -0.033372145 -5.8533416e-22)
(0.90011155 0.17434238 2.0202179e-20)
(0.86885604 0.26233187 -2.8936287e-21)
(0.8363076 0.2439763 8.2098401e-20)
(0.8138822 0.14774114 -2.137725e-21)
(0.80932441 -0.0121874 0)
(0.85637599 -0.14021549 -2.6947354e-20)
(0.94394533 -0.18795772 1.6508892e-20)
(1.033697 -0.1860623 6.3619164e-21)
(1.1111047 -0.14515985 2.9435991e-20)
(1.157985 -0.067305873 -4.3400641e-20)
(1.1574572 0.023979636 -1.7957187e-20)
(1.1132952 0.082141962 -2.4953491e-20)
(1.0618719 0.093446392 1.1669257e-20)
(1.0228623 0.076788286 -5.3056005e-21)
(1.0024544 0.051396111 -3.4870555e-22)
(0.99712651 0.028687354 -6.2477599e-21)
(0.99980565 0.012085404 2.5980988e-21)
(1.0059285 0.0014328086 -4.6382621e-21)
(1.0127234 -0.0044093029 0)
(1.0186701 -0.0068695104 -4.986349e-22)
(1.0231876 -0.0071168384 3.3890972e-22)
(1.0262081 -0.0061460779 1.1518723e-21)
(1.0279291 -0.0046735981 -1.1800681e-22)
(1.0286433 -0.0031225593 -4.5910466e-23)
(1.028637 -0.0017192915 7.7515731e-22)
(1.0281495 -0.00056969583 0)
(1.0273766 0.00027652169 1.4216874e-21)
(1.0264488 0.0008185711 1.9254449e-21)
(1.0254985 0.0010522248 -1.0399342e-21)
(1.0245919 0.0010502073 4.5280797e-23)
(1.0238658 0.00074347454 -2.5238168e-23)
(1.0233207 0.00035643477 2.5368871e-22)
(0.72450907 -0.089807703 5.9620794e-21)
(0.76801712 -0.20316527 -1.1433623e-21)
(0.81688407 -0.17822651 -2.2608746e-20)
(0.86346597 -0.037739969 2.4440113e-22)
(0.87514824 0.17730714 -4.010783e-20)
(0.84911088 0.27136556 -6.7259385e-20)
(0.81805255 0.25434331 2.5404382e-21)
(0.79764743 0.15344548 7.900117e-20)
(0.79387103 -0.013123002 5.9145298e-22)
(0.84018179 -0.15469821 3.0633352e-20)
(0.93020239 -0.21078813 -1.6862642e-21)
(1.0251585 -0.2107097 -2.0336419e-20)
(1.1085806 -0.16693347 -1.1443636e-20)
(1.1612228 -0.080323745 -3.6942604e-20)
(1.1687562 0.030853638 1.5043303e-19)
(1.1193906 0.10516578 -4.4260392e-21)
(1.0603873 0.11937016 -4.9827277e-21)
(1.0177434 0.098534745 3.4661852e-22)
(0.9934697 0.065923275 -5.0513565e-21)
(0.98666923 0.036613705 -1.8122627e-21)
(0.99032306 0.015250685 3.5707842e-22)
(0.99822371 0.0014584708 -4.7214085e-21)
(1.0070737 -0.0062207529 3.9972118e-21)
(1.0149651 -0.0095189358 0)
(1.0210972 -0.0099588872 2.1228411e-22)
(1.0253421 -0.0087836457 2.1673072e-21)
(1.0279217 -0.0069152091 -1.3405674e-21)
(1.0291981 -0.00491237 2.2795917e-21)
(1.0295303 -0.0030710324 -3.2929651e-24)
(1.0292232 -0.0015248059 -9.2426298e-22)
(1.0285052 -0.00031982184 -1.6958773e-21)
(1.0275587 0.00053211769 8.1895279e-22)
(1.0265046 0.0010533645 -5.8865533e-23)
(1.0254658 0.0012417209 -9.5064144e-22)
(1.0244993 0.0011880307 -1.5007591e-22)
(1.0237382 0.00082861813 -1.5830376e-23)
(1.0231699 0.0003831864 1.346326e-22)
(0.71554887 -0.092434372 -2.0399814e-22)
(0.75264602 -0.20734967 -3.4543023e-21)
(0.79396441 -0.18349896 -4.3926815e-20)
(0.8367627 -0.041751358 -1.4395578e-20)
(0.85032535 0.17967961 1.115558e-21)
(0.82883405 0.28000162 -3.2015847e-21)
(0.8017732 0.26644421 6.3361301e-20)
(0.78109426 0.16296392 -3.938979e-20)
(0.77962697 -0.016476382 0)
(0.82460383 -0.16799506 -7.6143409e-21)
(0.91593955 -0.23274914 0)
(1.0141657 -0.23446856 0)
(1.1023666 -0.18793987 -3.4888549e-20)
(1.1600196 -0.093322405 6.5611748e-21)
(1.1740263 0.037351007 3.1275535e-20)
(1.1262078 0.13217641 3.5325153e-20)
(1.0526703 0.14924099 -3.3077839e-20)
(1.0060792 0.12389885 7.7716938e-21)
(0.98113403 0.083106221 4.7364852e-21)
(0.97360755 0.045947929 2.1387856e-21)
(0.97842712 0.018760203 -2.5398229e-21)
(0.98859004 0.0012841043 4.9312419e-21)
(0.99991692 -0.0085929013 5.2652375e-23)
(1.0101703 -0.012919494 -3.0073573e-21)
(1.0182857 -0.013600251 -3.6054553e-22)
(1.0240511 -0.012175708 6.2534692e-22)
(1.027703 -0.0098137261 2.2797757e-22)
(1.0296811 -0.0072471712 -1.377262e-21)
(1.0304428 -0.0048639771 -8.7108394e-23)
(1.0303725 -0.0028360033 -2.6514926e-21)
(1.0297617 -0.0012149377 -1.3697642e-22)
(1.0288196 1.3798657e-06 1.847449e-23)
(1.0277084 0.00082913113 -1.512703e-21)
(1.0265344 0.0013060005 -1.0423519e-21)
(1.0254136 0.001445008 1.8446142e-21)
(1.0243924 0.0013301639 2.2838427e-22)
(1.0235999 0.00091495346 -3.3373385e-23)
(1.0230109 0.00040969006 0)
(0.70959588 -0.094815313 -1.2204684e-20)
(0.73978771 -0.21068991 -7.2919522e-22)
(0.7729228 -0.18786238 -1.7715633e-20)
(0.81119444 -0.045342042 -2.2565293e-20)
(0.82616268 0.18147745 -2.0832854e-20)
(0.80955357 0.28780572 1.3058067e-20)
(0.78622683 0.27698548 7.3011301e-21)
(0.76710628 0.17690974 -2.3896286e-19)
(0.7635863 -0.01253883 -6.9225566e-22)
(0.81165516 -0.18293317 -1.0165424e-19)
(0.90140582 -0.25335659 -4.0148951e-21)
(1.0013673 -0.25702608 0)
(1.092648 -0.20822804 0)
(1.1555184 -0.10550075 5.1484338e-20)
(1.1734097 0.042215987 -1.394049e-19)
(1.1341874 0.16037956 -7.4037085e-20)
(1.0476678 0.18295412 1.762519e-20)
(0.98849381 0.15157108 8.4293731e-21)
(0.96331587 0.10241988 6.2598751e-22)
(0.9573269 0.056351547 1.6364998e-21)