/*--------------------------------*- C++ -*----------------------------------*\
  =========                 |
  \\      /  F ield         | OpenFOAM: The Open Source CFD Toolbox
   \\    /   O peration     | Website:  https://openfoam.org
    \\  /    A nd           | Version:  8
     \\/     M anipulation  |
\*---------------------------------------------------------------------------*/
FoamFile
{
    version     2.0;
    format      ascii;
    class       volVectorField;
    location    "200.966377299857271";
    object      UMean;
}
// * * * * * * * * * * * * * * * * * * * * * * * * * * * * * * * * * * * * * //

dimensions      [0 1 -1 0 0 0 0];

internalField   nonuniform List<vector> 
9200
(
(1.0224069 -0.0002353409 -3.0390483e-24)
(1.0225711 -0.00067357868 -1.5517141e-22)
(1.0230856 -0.00024251635 0)
(1.0229157 -0.0010417681 6.8527659e-23)
(1.0232135 -0.00069450845 -1.3651151e-22)
(1.0233747 -0.00025209706 0)
(1.0233803 -0.0013796067 8.0357634e-24)
(1.0235119 -0.0010722252 -3.9801087e-23)
(1.0234896 -0.00072909879 0)
(1.0238529 -0.00026853245 0)
(1.0239524 -0.001624214 -6.3410873e-23)
(1.0239055 -0.0014307718 6.7973626e-23)
(1.0237699 -0.0011246873 -7.4392637e-23)
(1.0239509 -0.00079209299 -6.4633284e-24)
(1.0242493 -0.00028534868 3.9958204e-25)
(1.0245895 -0.0018206592 -5.0390191e-23)
(1.0243872 -0.0016913598 6.1272928e-23)
(1.0241368 -0.0015086234 -1.914088e-22)
(1.0242059 -0.0012216049 -3.7028039e-23)
(1.0243358 -0.00085950964 3.8162155e-23)
(1.0247298 -0.00030563439 4.1759079e-22)
(1.0252755 -0.0019360939 1.3854593e-22)
(1.0249177 -0.0019115856 -1.2165319e-22)
(1.0245828 -0.0017903203 1.3146662e-22)
(1.0245363 -0.0016514736 -5.8286734e-24)
(1.0245734 -0.001325696 -1.5942964e-22)
(1.0248077 -0.00094376751 -1.476363e-22)
(1.0251903 -0.00032532574 -9.9481485e-24)
(1.0259872 -0.0019875824 3.0070009e-22)
(1.025482 -0.0020506566 6.0848671e-23)
(1.0250685 -0.0020375631 -4.0354085e-23)
(1.0249377 -0.0019752252 1.0867646e-22)
(1.0248785 -0.0018038131 2.3800519e-22)
(1.0250309 -0.0014565147 1.0908695e-22)
(1.0252623 -0.0010289995 3.5089013e-22)
(1.0257059 -0.00034594667 -5.5268628e-22)
(1.0267075 -0.0019640922 -3.2701379e-22)
(1.026055 -0.0021311431 -1.2791544e-22)
(1.0255698 -0.0022090551 1.1229027e-22)
(1.0253712 -0.0022687684 -8.7646459e-23)
(1.0252471 -0.002171613 2.4620709e-22)
(1.0253154 -0.0019951482 5.5701116e-22)
(1.0254748 -0.0015890442 -4.9226323e-22)
(1.0257766 -0.0011215641 6.50902e-22)
(1.0262181 -0.00036479408 1.3090454e-21)
(1.0274168 -0.0018685628 4.2194499e-22)
(1.026604 -0.0021454978 3.1355956e-22)
(1.0260716 -0.002325308 -3.541877e-23)
(1.0258221 -0.002486921 -3.9696301e-22)
(1.0256438 -0.0025160325 -1.189213e-23)
(1.0256568 -0.0024203803 4.14951e-22)
(1.0257438 -0.0021890388 -2.2395089e-22)
(1.0259844 -0.0017334587 -5.4592034e-22)
(1.0262898 -0.0012105578 -2.8234324e-22)
(1.0267679 -0.00038233061 -7.9096658e-23)
(1.028097 -0.0016994338 -1.8140978e-22)
(1.0271025 -0.0021006101 3.4340871e-22)
(1.0265558 -0.0023783463 -1.6125579e-22)
(1.0262715 -0.0026589125 -2.1601396e-23)
(1.0260492 -0.0027859168 -6.2589552e-22)
(1.0260201 -0.0028278233 8.4080593e-22)
(1.0260649 -0.0026716623 1.374368e-22)
(1.0262467 -0.0024011266 -1.1028566e-21)
(1.0264963 -0.0018725289 6.0755972e-22)
(1.0268451 -0.0012987046 -1.2175132e-21)
(1.0273163 -0.00039682869 2.5685167e-22)
(1.0287365 -0.0014626791 -7.053018e-23)
(1.0275635 -0.0019961474 -6.2892043e-22)
(1.0270156 -0.0023791209 -1.7186357e-22)
(1.0266993 -0.0027765326 0)
(1.0264444 -0.0030103562 2.4057724e-23)
(1.0263882 -0.0031601866 -4.586172e-22)
(1.0264033 -0.0031426282 2.0427347e-22)
(1.0265557 -0.0029495662 5.6121269e-22)
(1.0267567 -0.0026062493 -4.1926602e-22)
(1.0270567 -0.0020108846 8.0128529e-22)
(1.0274019 -0.0013785262 5.991566e-22)
(1.0278859 -0.00040832766 -1.2712788e-22)
(1.0293077 -0.0011549764 -9.2535445e-24)
(1.0279659 -0.0018466555 2.6090777e-22)
(1.0274337 -0.0023357323 0)
(1.0270845 -0.0028486925 0)
(1.0268146 -0.0031785296 2.1604459e-22)
(1.0267458 -0.0034500159 -8.4440308e-22)
(1.0267404 -0.0035399815 8.3544314e-22)
(1.0268781 -0.003492606 -5.0530094e-22)
(1.0270599 -0.0032195107 -1.5648805e-23)
(1.0273247 -0.0028121486 4.7594681e-24)
(1.0276227 -0.002136723 -1.2096698e-21)
(1.0279841 -0.0014507282 1.5164997e-21)
(1.0284497 -0.00041583009 -2.6926468e-21)
(1.0297761 -0.00079081772 2.7025273e-22)
(1.0282899 -0.0016563137 -3.3033594e-23)
(1.0277955 -0.0022547442 2.6077441e-22)
(1.0274283 -0.0028746445 -3.2247826e-22)
(1.0271454 -0.0032987892 3.4110487e-22)
(1.027074 -0.0036854419 -2.7905155e-22)
(1.0270618 -0.0038948906 -7.8938956e-23)
(1.0271931 -0.0039639155 3.5319801e-23)
(1.0273729 -0.0038350828 -2.3286853e-22)
(1.0276328 -0.0034934798 -2.1025144e-22)
(1.0279041 -0.0030015398 -2.9189648e-22)
(1.0282205 -0.0022511902 -8.0557647e-22)
(1.0285637 -0.0015104759 -5.8494063e-22)
(1.0290184 -0.00041923157 7.874347e-22)
(1.0301032 -0.00038996681 -1.0605721e-21)
(1.0285117 -0.0014138819 -1.0643496e-21)
(1.028084 -0.0021467961 -1.6827632e-22)
(1.0277218 -0.0028681961 6.1471981e-23)
(1.0274401 -0.0033746724 -5.5437242e-23)
(1.0273584 -0.0038733698 3.7707712e-22)
(1.0273478 -0.0041947542 -6.3594158e-23)
(1.0274871 -0.0043946614 1.1260249e-22)
(1.0276731 -0.0043817709 -2.3053667e-22)
(1.0279478 -0.0041862324 -1.4096707e-23)
(1.0282241 -0.0037483662 1.7761753e-23)
(1.0285247 -0.0031766861 -1.6287893e-22)
(1.02882 -0.0023465807 1.350058e-21)
(1.0291522 -0.0015575058 -7.4738549e-22)
(1.0295742 -0.00041799932 6.6116323e-22)
(1.0301821 5.4164447e-05 -2.8608427e-23)
(1.028594 -0.0011613949 3.0185096e-22)
(1.0282775 -0.002005632 -3.9523192e-22)
(1.0279506 -0.002838192 3.6267035e-22)
(1.0276914 -0.0034162339 -3.8136337e-22)
(1.0276047 -0.0040154187 3.8137396e-22)
(1.0275873 -0.0044437363 -9.8516282e-22)
(1.0277393 -0.0047710043 8.3073404e-23)
(1.0279456 -0.0048919805 1.7124185e-22)
(1.0282444 -0.0048148166 -6.5845629e-22)
(1.0285495 -0.0045167844 1.9558766e-21)
(1.0288678 -0.0039880718 -1.0576248e-21)
(1.0291536 -0.0033261653 -4.6816179e-22)
(1.0294346 -0.0024224156 -1.1980841e-22)
(1.0297304 -0.0015889677 5.6082764e-23)
(1.0301199 -0.00041198995 -7.6169919e-22)
(1.0297575 0.00050616263 0)
(1.028485 -0.00088841997 5.9396991e-22)
(1.0283612 -0.0018707475 2.7157763e-22)
(1.0280962 -0.0027840066 0)
(1.0278906 -0.0034303348 0)
(1.0278085 -0.0041185183 0)
(1.027786 -0.0046437354 1.2675088e-22)
(1.0279391 -0.0050950681 -2.456657e-22)
(1.0281696 -0.0053480862 1.1049355e-21)
(1.028507 -0.0054128684 -4.7943315e-22)
(1.0288516 -0.0052279118 2.2999768e-22)
(1.0292167 -0.0048325624 -4.2162855e-22)
(1.0295277 -0.0041972271 1.2664789e-22)
(1.0298064 -0.0034494915 5.3654214e-22)
(1.0300431 -0.0024741164 6.27235e-23)
(1.030302 -0.0016044009 3.9506188e-22)
(1.0306444 -0.00040105713 0)
(1.0284386 0.00091703906 -5.5355762e-23)
(1.028016 -0.00059040377 -1.6253026e-22)
(1.0282672 -0.0017484176 1.247332e-21)
(1.0281471 -0.0027252109 8.8327419e-22)
(1.028026 -0.0034262282 7.8501851e-22)
(1.027965 -0.004186914 0)
(1.0279396 -0.0047972599 1.0552691e-21)
(1.0280901 -0.0053671105 -4.1969762e-22)
(1.0283344 -0.0057529079 -1.5396791e-21)
(1.0287133 -0.0059593976 1.4290396e-21)
(1.0291142 -0.0059155127 3.0051945e-22)
(1.029538 -0.0056284561 2.7502e-22)
(1.0299094 -0.0051138627 -1.3449232e-21)
(1.0302226 -0.0043754292 1.7227597e-21)
(1.0304596 -0.0035397411 1.8918003e-22)
(1.0306505 -0.0025008399 2.907064e-21)
(1.0308547 -0.0016025097 1.0669134e-21)
(1.0311464 -0.00038522106 1.0205666e-21)
(1.0257732 0.0012483817 -9.2317482e-23)
(1.0268669 -0.00035616437 -2.8184654e-23)
(1.0278602 -0.0016232464 4.8363979e-23)
(1.0280442 -0.0026911528 6.4682859e-22)
(1.02809 -0.0034034192 -1.0611185e-22)
(1.0280657 -0.0042307752 -1.0782249e-22)
(1.0280451 -0.0049065137 -1.6507423e-21)
(1.0281888 -0.005587052 -2.28046e-21)
(1.0284418 -0.0061045605 -8.6363625e-22)
(1.0288526 -0.0064581466 2.2472623e-22)
(1.0293132 -0.0065572186 -3.3343643e-22)
(1.0298146 -0.0064101475 9.8104089e-22)
(1.0302609 -0.0059924375 -9.5382516e-22)
(1.0306502 -0.0053606157 7.5800458e-23)
(1.0309261 -0.0045131021 3.3389359e-23)
(1.0311197 -0.0035956113 -4.8921065e-22)
(1.0312425 -0.0025003364 1.0193819e-21)
(1.0313875 -0.0015831014 -5.6510149e-23)
(1.0316192 -0.00036454142 9.7063954e-22)
(1.0213711 0.0014497012 -9.7600067e-22)
(1.0245562 -0.00022325884 -4.3577877e-22)
(1.0269129 -0.0015475203 -1.466959e-22)
(1.0276928 -0.0026560906 -3.1369443e-22)
(1.0280391 -0.0034096412 9.1345931e-23)
(1.0280974 -0.0042357931 -6.2667376e-23)
(1.0280978 -0.0049792006 2.2466422e-22)
(1.0282328 -0.0057551439 3.971461e-22)
(1.0284879 -0.0064012648 -3.7294466e-22)
(1.0289242 -0.0069047465 -2.2174803e-21)
(1.0294381 -0.0071559603 9.4399935e-22)
(1.0300211 -0.0071536849 1.2011781e-22)
(1.0305639 -0.0068676626 -2.9508777e-22)
(1.0310466 -0.0063196775 1.8825902e-23)
(1.0314092 -0.0055602041 1.4339267e-22)
(1.0316465 -0.0046083689 -1.7922631e-21)
(1.0317699 -0.0036135164 5.7512995e-22)
(1.0318188 -0.0024721263 -1.70002e-21)
(1.0318928 -0.0015459626 -4.2301958e-22)
(1.0320602 -0.00033915816 -1.0129495e-21)
(1.0150715 0.0014752516 9.028774e-23)
(1.0207375 -0.00021443679 -1.1977692e-21)
(1.0249791 -0.0015617597 3.3806831e-22)
(1.0268748 -0.0026656388 1.4542475e-23)
(1.0277855 -0.0034233003 -2.2893111e-22)
(1.0280388 -0.004245769 -4.2367578e-22)
(1.0280839 -0.0050039457 1.6037492e-21)
(1.0282191 -0.0058755509 3.4749086e-21)
(1.0284704 -0.0066414157 -3.8711048e-23)
(1.0289236 -0.0072961689 0)
(1.0294855 -0.0077064454 -5.9737231e-22)
(1.0301458 -0.0078610401 1.0942386e-21)
(1.0307912 -0.0077140901 1.4794938e-21)
(1.0313915 -0.0072880809 -1.5181933e-21)
(1.031862 -0.0065946172 4.9376113e-22)
(1.0321974 -0.0057101301 -1.4594872e-21)
(1.0323643 -0.0046560523 7.9673097e-23)
(1.0324109 -0.0035925283 6.9408047e-22)
(1.0323703 -0.0024156834 -1.0929093e-21)
(1.0323678 -0.0014913588 -8.3699524e-23)
(1.0324656 -0.00030930596 -9.4090964e-22)
(1.0069747 0.0013668618 2.0907467e-21)
(1.0151184 -0.00032380338 -1.7814193e-21)
(1.0215906 -0.0016970093 -1.9762604e-21)
(1.0252196 -0.0027577372 1.0979117e-21)
(1.0271161 -0.0034570333 -4.8011654e-23)
(1.0278011 -0.0042589708 -4.4067669e-23)
(1.027996 -0.0050030819 0)
(1.0281335 -0.0059444015 -1.5365607e-22)
(1.0283874 -0.0068271178 -1.0305189e-21)
(1.0288491 -0.0076300605 -1.9946738e-21)
(1.0294506 -0.0082041451 1.7408868e-22)
(1.0301835 -0.0085262098 6.3559883e-22)
(1.0309303 -0.0085336258 -1.9705297e-22)
(1.0316562 -0.0082394547 -3.9806802e-22)
(1.0322623 -0.0076525306 9.8680841e-22)
(1.0327206 -0.0068140192 -9.3325823e-22)
(1.0329923 -0.0058032743 1.9313876e-22)
(1.0330813 -0.0046545547 -1.2548839e-21)
(1.0330311 -0.0035315366 -1.5419746e-22)
(1.0328942 -0.0023313148 -3.28533e-23)
(1.0328081 -0.0014198909 -5.6397466e-22)
(1.032833 -0.00027526766 0)
(0.99734628 0.00116505 9.3193246e-22)
(1.0076793 -0.0005557973 1.423032e-21)
(1.0163972 -0.0019829248 -5.3198755e-23)
(1.0222541 -0.0029458585 2.3500642e-21)
(1.0257088 -0.0035620671 3.9329205e-22)
(1.027201 -0.004253896 3.3512043e-23)
(1.0277489 -0.0050037801 1.9367683e-22)
(1.0279753 -0.0059585878 1.4481399e-21)
(1.028227 -0.006961473 4.1603414e-22)
(1.0286993 -0.0079066697 2.122163e-22)
(1.0293313 -0.0086461723 -5.9595771e-23)
(1.0301287 -0.0091434932 -1.5174803e-21)
(1.0309746 -0.0093183642 1.1277654e-22)
(1.0318265 -0.0091748435 8.922723e-22)
(1.0325789 -0.0087067459 -9.6746679e-22)
(1.0331922 -0.0079565687 -1.3252684e-21)
(1.0335971 -0.0069686029 -1.015752e-24)
(1.0337971 -0.0058370507 2.2707097e-21)
(1.0337833 -0.0046018885 1.2134881e-22)
(1.0336282 -0.0034306542 -7.1540632e-22)
(1.0333847 -0.0022197599 0)
(1.033211 -0.0013322545 1.226573e-21)
(1.0331602 -0.00023736106 2.4283139e-23)
(0.98660285 0.0009034041 -4.1793685e-21)
(0.99868447 -0.00086337701 5.5682345e-21)
(1.0092623 -0.0024071084 -4.9093567e-21)
(1.0175485 -0.0032707682 -1.770515e-21)
(1.0230931 -0.0037479424 2.4832885e-21)
(1.0259702 -0.0042875163 0)
(1.0271818 -0.0049711616 5.4580771e-23)
(1.0276767 -0.0059649806 2.6123033e-22)
(1.0279817 -0.0070255012 1.2191972e-21)
(1.0284658 -0.0081313435 2.1970992e-21)
(1.0291274 -0.0090316539 -8.5872474e-22)
(1.0299798 -0.0097091769 -1.1488914e-21)
(1.0309169 -0.010061625 1.419738e-21)
(1.0318941 -0.010083765 -1.0843538e-21)
(1.0327963 -0.0097571134 1.963428e-21)
(1.0335778 -0.0091107753 2.3197615e-21)
(1.0341527 -0.0081887223 -1.1959202e-21)
(1.034496 -0.007054563 9.1249487e-22)
(1.0345947 -0.0058082976 -2.9103629e-21)
(1.0344684 -0.0044976056 8.717726e-22)
(1.0341945 -0.0032905814 1.5621684e-21)
(1.0338389 -0.0020820005 -1.2788402e-21)
(1.0335741 -0.001229639 7.3183025e-22)
(1.0334459 -0.0001958947 2.0886368e-23)
(0.97518153 0.00061657965 -8.2376303e-22)
(0.98837691 -0.0012239887 5.4306534e-21)
(1.0003831 -0.0029066749 6.9440009e-22)
(1.010889 -0.003744681 1.2789741e-20)
(1.0188336 -0.004057025 -2.5880541e-21)
(1.0236661 -0.0043916473 2.7071257e-21)
(1.0260336 -0.0049500868 5.9980096e-23)
(1.0270898 -0.0059324148 -5.9226295e-22)
(1.0276166 -0.0070659066 1.3689559e-22)
(1.0281334 -0.0082857576 7.1062768e-22)
(1.0288335 -0.0093650154 -3.1340574e-22)
(1.0297371 -0.010221197 2.1972739e-21)
(1.0307563 -0.010758867 -6.2661249e-22)
(1.0318512 -0.010959286 -1.5758635e-22)
(1.0329037 -0.010791517 5.4888044e-22)
(1.0338594 -0.010275263 3.434925e-22)
(1.0346223 -0.0094375666 -2.4230102e-22)
(1.0351507 -0.0083439678 1.4902346e-21)
(1.0353977 -0.0070673051 0)
(1.0353837 -0.0057156465 2.5118029e-22)
(1.0351265 -0.0043421233 7.4650875e-23)
(1.0347265 -0.0031125667 -1.3896022e-22)
(1.0342535 -0.0019197111 -7.3206451e-24)
(1.0338959 -0.0011132898 -1.0653599e-21)
(1.0336894 -0.00015143087 -4.2747366e-22)
(0.96346291 0.00032887581 2.9552202e-21)
(0.9772028 -0.0016008847 -3.4837751e-21)
(0.99013341 -0.0034317885 -2.2817502e-21)
(1.002387 -0.0043111289 -1.8944e-21)
(1.0126318 -0.0045114519 -1.1415989e-20)
(1.0198667 -0.0045830033 -4.9423964e-22)
(1.0239404 -0.0049786878 6.8908473e-23)
(1.0259583 -0.0058837587 -3.6211281e-23)
(1.026996 -0.0070777152 6.8217847e-22)
(1.0276944 -0.0083983069 7.3138494e-23)
(1.028433 -0.0096367698 9.2478931e-22)
(1.0293986 -0.010681896 -2.7348876e-22)
(1.0304942 -0.011406735 -1.1584438e-21)
(1.0316968 -0.01179502 1.4459737e-22)
(1.0328933 -0.011800968 -5.9008883e-22)
(1.0340241 -0.011435972 -8.4790508e-22)
(1.0349846 -0.010712189 -3.6763827e-22)
(1.0357208 -0.0096804066 -2.1786011e-21)
(1.0361633 -0.0084160817 -3.2285442e-21)
(1.0363011 -0.0070041261 -1.4045033e-23)
(1.0361512 -0.005558985 3.1376106e-21)
(1.0357539 -0.0041365541 6.348915e-22)
(1.0352196 -0.002898596 -1.298528e-21)
(1.0346259 -0.0017348787 1.0795743e-21)
(1.0341754 -0.00098456821 -7.0354393e-22)
(1.0338912 -0.00010472272 3.9814614e-23)
(0.95172514 5.8942375e-05 -1.1570316e-22)
(0.965578 -0.0019594006 -4.3264223e-21)
(0.97892815 -0.0039455546 1.0083458e-20)
(0.99236791 -0.0049153498 -1.2106693e-20)
(1.0044646 -0.005075427 1.1797813e-20)
(1.0141336 -0.0049207499 -6.1666722e-21)
(1.0204686 -0.005057951 -2.5566437e-21)
(1.0239809 -0.0058606704 -1.4685751e-21)
(1.0258594 -0.0070552461 1.3206185e-22)
(1.0270358 -0.0084932943 -5.4710655e-22)
(1.0279289 -0.0098541115 -3.8447129e-23)
(1.0289511 -0.011091631 -2.5505725e-21)
(1.030131 -0.012006028 2.5072213e-21)
(1.0314336 -0.012586332 -1.1842607e-21)
(1.0327628 -0.012777584 2.9987836e-22)
(1.0340631 -0.012581101 4.1307555e-22)
(1.0352234 -0.011996675 -1.4526174e-21)
(1.0361812 -0.01106009 1.6254132e-21)
(1.0368482 -0.0098314397 -1.4833357e-21)
(1.0371907 -0.0084007292 2.0352622e-22)
(1.0371908 -0.0068639878 0)
(1.0368934 -0.0053387229 1.2790351e-21)
(1.0363436 -0.0038830518 1.7373788e-22)
(1.0356703 -0.0026509752 0)
(1.0349544 -0.0015295497 -1.3011001e-21)
(1.0344117 -0.00084505376 -8.2872622e-23)
(1.0340518 -5.5810507e-05 2.5221665e-22)
(0.94012194 -0.00018686353 -8.3133138e-22)
(0.95383021 -0.0022871476 -3.6988937e-22)
(0.96720733 -0.0044183162 9.5542019e-21)
(0.98122239 -0.0055155941 -1.1440663e-21)
(0.99464037 -0.0056774199 3.1894397e-21)
(1.0063268 -0.0053927069 9.0113645e-21)
(1.0151462 -0.0052584464 3.3321151e-22)
(1.0207268 -0.0058721108 2.7067589e-21)
(1.0239344 -0.0070499483 -1.6811992e-22)
(1.0259024 -0.0085496704 1.4082387e-22)
(1.0272387 -0.010056352 -1.2215501e-21)
(1.0283948 -0.011440472 -7.9428335e-22)
(1.0296587 -0.012561594 -1.3569221e-21)
(1.0310642 -0.013332123 3.2298823e-22)
(1.0325158 -0.013714798 -1.3637092e-21)
(1.0339734 -0.013701715 4.7746612e-22)
(1.0353288 -0.013277792 -1.8095874e-21)
(1.0365124 -0.012465841 4.7350511e-21)
(1.0374232 -0.011308737 1.5337187e-21)
(1.0380055 -0.0098843093 1.6414227e-22)
(1.0382144 -0.0082957941 1.8811132e-21)
(1.0380628 -0.0066462459 -2.0165302e-22)
(1.0376006 -0.0050569614 -1.182032e-22)
(1.0368917 -0.0035839873 0)
(1.0360759 -0.0023722072 0)
(1.0352379 -0.0013059872 1.0877134e-22)
(1.0346044 -0.00069590503 -5.9604248e-22)
(1.0341714 -5.0618279e-06 -3.3332106e-22)
(0.92873005 -0.00040552908 0)
(0.94215439 -0.0025767883 -2.7077003e-21)
(0.95531189 -0.0048330034 -9.8681868e-21)
(0.96942298 -0.0060694229 -7.3419045e-21)
(0.98353797 -0.0062772648 -1.3506934e-20)
(0.99670293 -0.0059245464 -1.4063019e-21)
(1.0077581 -0.0056072684 5.2042381e-21)
(1.0157703 -0.005966555 6.7787445e-21)
(1.0208405 -0.0070703634 -3.8910962e-21)
(1.0240112 -0.0086224218 2.4410855e-22)
(1.0261297 -0.010224753 3.8896736e-23)
(1.0276797 -0.011771009 2.6647485e-22)
(1.0290711 -0.013055865 -3.3889276e-21)
(1.0305861 -0.014036632 5.7033407e-22)
(1.0321572 -0.014608748 5.4047044e-22)
(1.0337582 -0.014787614 -1.3428824e-21)
(1.0352966 -0.014543245 5.8788942e-22)
(1.0367024 -0.01388258 -1.4179953e-21)
(1.0378649 -0.012830507 3.6848144e-21)
(1.0387124 -0.011449774 -1.0621953e-21)
(1.0391717 -0.0098352176 1.5908924e-21)
(1.0392305 -0.0080987935 1.0460921e-21)
(1.0389047 -0.0063527882 -7.5233794e-23)
(1.0382685 -0.0047160278 -3.2421337e-21)
(1.0373937 -0.0032426232 -9.0834726e-22)
(1.0364345 -0.0020654491 1.8741341e-22)
(1.0354762 -0.0010661608 9.1606114e-22)
(1.0347541 -0.00053852928 -2.6176584e-22)
(1.0342518 4.6752527e-05 1.850304e-22)
(0.91758739 -0.0005997329 2.2745882e-21)
(0.93064138 -0.0028244838 0)
(0.94344946 -0.0051818617 0)
(0.95734993 -0.0065517199 0)
(0.97164131 -0.0068304301 4.0035881e-21)
(0.98566128 -0.0064680352 -1.1896591e-20)
(0.99839984 -0.0060448566 3.593982e-22)
(1.0087988 -0.0062000592 1.3272269e-22)
(1.0161711 -0.0071364645 -8.8986747e-21)
(1.0210421 -0.0087129536 4.7265722e-21)
(1.0242912 -0.010410728 -3.7918948e-22)
(1.0266161 -0.012080816 -2.3027747e-22)
(1.0283502 -0.013526586 9.1214369e-22)
(1.0299906 -0.014687416 -7.5264652e-22)
(1.031689 -0.015460008 2.6632628e-21)
(1.0334236 -0.015832282 7.5308522e-22)
(1.0351283 -0.015780389 -1.4472826e-21)
(1.0367445 -0.015294913 -1.7182607e-21)
(1.0381583 -0.014379902 7.6927304e-22)
(1.0392837 -0.013080641 -8.3527559e-22)
(1.0400259 -0.011477528 -1.8787438e-21)
(1.0403427 -0.0096795988 1.7763844e-22)
(1.0402237 -0.0078109312 2.5173685e-21)
(1.0397113 -0.0059852151 -1.5384023e-21)
(1.0388902 -0.0043197874 -1.2507554e-22)
(1.0378469 -0.0028627513 -4.9387133e-22)
(1.0367448 -0.0017339527 1.0145136e-21)
(1.0356694 -0.00081273353 3.6650087e-22)
(1.0348621 -0.0003744507 6.9260957e-22)
(1.0342943 9.9438542e-05 -5.7204575e-23)
(0.90577915 -0.00075242243 -7.9339644e-23)
(0.91934255 -0.003032992 -3.1565483e-21)
(0.93171935 -0.0054673831 0)
(0.94525253 -0.0069537559 0)
(0.95936807 -0.0073086034 0)
(0.97365948 -0.0069768166 0)
(0.98745555 -0.0065142306 0)
(0.99975774 -0.0065476756 -2.6258711e-23)
(1.0095598 -0.0073291827 5.0344375e-21)
(1.0165895 -0.0088390674 -8.9149839e-21)
(1.0214476 -0.010615441 1.2795958e-23)
(1.0248685 -0.012405241 -4.1108003e-24)
(1.0273502 -0.013990048 -1.742506e-21)
(1.0292815 -0.015304075 1.5009623e-21)
(1.0311052 -0.016265305 -1.9266637e-22)
(1.0329754 -0.016832384 1.4941799e-21)
(1.0348296 -0.016978764 -2.226354e-21)
(1.0366389 -0.016687768 6.855202e-22)
(1.0382941 -0.015940509 1.8343513e-21)
(1.0397014 -0.01475905 9.8744581e-22)
(1.0407457 -0.013207705 2.4947664e-22)
(1.0413598 -0.011385116 1.4236414e-21)
(1.0415004 -0.0094176804 4.1237673e-23)
(1.0411877 -0.0074325221 -9.9690614e-22)
(1.0404732 -0.005547661 6.3635195e-22)
(1.039462 -0.0038721205 2.6623636e-21)
(1.0382488 -0.002448464 6.5927335e-22)
(1.037006 -0.0013812643 -4.4590328e-22)
(1.0358181 -0.00054810917 4.1130802e-23)
(1.0349297 -0.0002050517 -2.2303755e-22)
(1.0343005 0.00015275826 8.4110653e-23)
(0.89288418 -0.00089612999 -1.9080391e-21)
(0.90737543 -0.0031778504 -6.5538417e-22)
(0.92016692 -0.0056956507 -9.5852505e-21)
(0.93324491 -0.0072777549 -1.4809618e-20)
(0.946998 -0.0076988622 0)
(0.96115949 -0.0074108172 0)
(0.97537535 -0.0069648473 -6.3118159e-24)
(0.98895792 -0.0069519074 -1.2130561e-20)
(1.0008716 -0.0076368043 1.4435724e-20)
(1.010286 -0.0090806712 -1.2018244e-20)
(1.0172244 -0.010855 -5.6803182e-23)
(1.0221523 -0.012757649 2.1302785e-21)
(1.0257309 -0.014460624 -1.3160092e-22)
(1.0283561 -0.015917766 -1.5074422e-22)
(1.0304173 -0.017022456 -1.5832327e-21)
(1.0324126 -0.017786068 1.6111049e-22)
(1.0344081 -0.018129909 3.1341482e-21)
(1.0363892 -0.018046933 -1.9709528e-22)
(1.0382695 -0.017492871 -1.8201403e-21)
(1.0399523 -0.01646662 5.9720169e-21)
(1.0413086 -0.01500761 -2.7896241e-22)
(1.0422464 -0.013202193 -1.6582509e-21)
(1.0426937 -0.011170804 3.6306297e-21)
(1.0426379 -0.0090478593 1.7718988e-21)
(1.0421103 -0.0069677572 -2.9598941e-22)
(1.0411853 -0.0050438648 1.576396e-21)
(1.0399794 -0.0033781241 7.8828043e-22)
(1.0385979 -0.0020041082 1.8357499e-22)
(1.0372183 -0.0010109882 -4.2904922e-22)
(1.0359232 -0.00027478726 -1.5535521e-22)
(1.0349588 -3.2008943e-05 1.6744417e-22)
(1.0342724 0.00020636157 1.805896e-23)
(0.87949203 -0.00099388493 5.4057953e-22)
(0.89428445 -0.0032852548 3.372847e-21)
(0.90792184 -0.0058255073 1.3345821e-20)
(0.9213804 -0.0075297083 1.8077974e-20)
(0.93466758 -0.0080027611 0)
(0.94848467 -0.007753717 0)
(0.96266101 -0.0073485145 0)
(0.97683548 -0.0073570607 1.8028828e-21)
(0.9902725 -0.0080205132 -1.7484242e-20)
(1.001973 -0.0094295718 -1.3189109e-20)
(1.0112397 -0.011188983 -7.4417793e-23)
(1.018152 -0.01314476 7.7518748e-22)
(1.0231666 -0.014981025 -3.1899749e-21)
(1.0269009 -0.016536199 -9.5229823e-22)
(1.0295643 -0.017769016 5.0806888e-22)
(1.0317441 -0.018679052 0)
(1.0338678 -0.019232151 9.0745084e-22)
(1.0360027 -0.019359289 -6.7069488e-22)
(1.0380858 -0.019020763 1.4335834e-21)
(1.04003 -0.018182724 2.4201444e-22)
(1.041698 -0.016858541 -2.8160892e-21)
(1.0429766 -0.015113509 -3.6596265e-23)
(1.043764 -0.013059993 -2.6035821e-21)
(1.0440193 -0.010830808 -3.1270826e-21)
(1.0437396 -0.0085739262 9.6854005e-22)
(1.0429851 -0.0064196183 3.225767e-22)
(1.0418409 -0.0044797618 -2.1077761e-22)
(1.04044 -0.0028428687 1.6061009e-23)
(1.0388934 -0.0015342832 -5.2660598e-22)
(1.0373826 -0.00062658209 -5.0286145e-22)
(1.0359863 4.8401648e-06 2.1415558e-22)
(1.0349514 0.00014328031 -9.0928573e-22)
(1.0342124 0.00025977391 5.2867515e-22)
(0.86564355 -0.0010350835 3.191889e-22)
(0.88054734 -0.003330888 2.8276773e-22)
(0.89455694 -0.0058921509 2.3112654e-20)
(0.90877839 -0.0076645519 3.4717997e-20)
(0.92244463 -0.0082285245 -7.5326213e-21)
(0.93579713 -0.0080064721 -7.6379861e-22)
(0.94967738 -0.0076423346 -2.9814378e-20)
(0.9639173 -0.0077069082 1.4168696e-20)
(0.97816639 -0.0084268614 1.8816388e-21)
(0.99163105 -0.0098730446 3.4164869e-20)
(1.0033014 -0.011641533 -1.0626122e-20)
(1.0124722 -0.013610512 -1.0450674e-20)
(1.0194009 -0.015535121 -5.8075902e-23)
(1.0245314 -0.017222633 1.294537e-21)
(1.0282876 -0.0185162 -5.6911557e-22)
(1.0309462 -0.019544881 -5.6417139e-22)
(1.0332118 -0.020263843 3.581725e-22)
(1.0354854 -0.020619254 2.4239642e-21)
(1.0377482 -0.020507594 -3.3187456e-22)
(1.0399342 -0.019887603 -4.1240786e-22)
(1.0419038 -0.018738617 4.8037258e-22)
(1.043529 -0.017100565 -4.6344218e-21)
(1.0446821 -0.01506875 1.2366808e-22)
(1.045289 -0.01277441 9.072076e-22)
(1.0453183 -0.010367782 -4.1693076e-21)
(1.0447978 -0.0079975896 -1.3607615e-21)
(1.0438024 -0.0057948043 -1.1647645e-21)
(1.0424363 -0.0038607105 -5.3991828e-22)
(1.0408416 -0.0022720085 -6.0810583e-22)
(1.039135 -0.0010435947 -2.2054887e-23)
(1.0374997 -0.00023155959 -6.1431642e-23)
(1.0360094 0.00028840171 -6.093584e-23)
(1.0349096 0.00031943477 5.18396e-22)
(1.0341227 0.00031261281 -1.2648013e-21)
(0.85148929 -0.0010090709 -4.7939223e-22)
(0.86618429 -0.0033028149 -4.1689037e-22)
(0.88046487 -0.0058709159 -2.5816885e-20)
(0.89503353 -0.0077366442 -1.7278765e-20)
(0.90945106 -0.0083269195 2.8108303e-20)
(0.92317885 -0.0081808371 3.5166561e-20)
(0.93661883 -0.0078434625 4.0292506e-21)
(0.95061975 -0.0079685045 0)
(0.96507774 -0.0087884632 1.5358925e-20)
(0.97959013 -0.010357689 4.7387626e-20)
(0.99328 -0.0121916 1.6373501e-21)
(1.0049115 -0.014198405 5.3484061e-21)
(1.01405 -0.016156075 0)
(1.0210173 -0.017940024 -6.6500161e-22)
(1.0261539 -0.019325438 -1.301964e-21)
(1.0298254 -0.020396982 7.9349476e-22)
(1.0324428 -0.021244215 -2.3773714e-21)
(1.0348386 -0.021807298 0)
(1.0372623 -0.021942001 -1.6778353e-23)
(1.0396661 -0.021562636 3.2560873e-22)
(1.0419212 -0.020625476 -4.2646017e-21)
(1.0438898 -0.019140557 2.9526541e-22)
(1.0454224 -0.017180198 0)
(1.0464144 -0.014863955 -3.9179627e-21)
(1.0468005 -0.012345772 1.2696464e-21)
(1.0465806 -0.0097817189 -7.4465339e-23)
(1.0457997 -0.0073259051 -1.7525604e-21)
(1.044557 -0.0050984803 1.3013422e-21)
(1.0429673 -0.0031937154 7.6718782e-23)
(1.0411831 -0.0016712168 -1.2070912e-21)
(1.0393235 -0.00053655089 9.5865312e-22)
(1.0375714 0.00017065836 3.2290232e-22)
(1.0359944 0.00057382453 0)
(1.0348359 0.00049533511 -2.1569016e-23)
(1.0340058 0.00036455818 -4.7403677e-22)
(0.83738607 -0.00089866096 -1.0946107e-22)
(0.85131755 -0.0031816497 2.1201556e-21)
(0.86568097 -0.0057468966 -2.377358e-20)
(0.88043943 -0.0077013532 -6.0722674e-21)
(0.89530339 -0.0083752453 7.4227237e-21)
(0.90974052 -0.00821365 4.5197346e-21)
(0.92358822 -0.0079683275 2.98603e-20)
(0.93717371 -0.0081360004 8.1389557e-23)
(0.95147533 -0.0090620085 0)
(0.96635375 -0.010806295 -1.776562e-20)
(0.98137554 -0.012806776 1.4543407e-20)
(0.99528785 -0.014879135 -8.553621e-22)
(1.0068455 -0.016889124 5.4135278e-21)
(1.015989 -0.018714356 -5.0392315e-21)
(1.0228753 -0.02017223 -2.3776295e-21)
(1.0279286 -0.02128028 3.1211004e-22)
(1.0314283 -0.022191812 -2.1602714e-21)
(1.0340759 -0.022918797 -9.3592739e-22)
(1.0366294 -0.023308103 3.5583482e-21)
(1.0392298 -0.023191576 -4.5849411e-21)
(1.0417499 -0.02249922 4.3219841e-21)
(1.0440509 -0.021211506 -2.4502321e-21)
(1.045967 -0.019371827 0)
(1.0473667 -0.017084137 -1.0580467e-21)
(1.0481504 -0.014496105 2.9394185e-22)
(1.0482858 -0.011772215 1.9504519e-21)
(1.0477905 -0.009079215 7.4178399e-22)
(1.0467381 -0.0065634978 3.8900756e-22)
(1.0452423 -0.0043390975 8.7793739e-22)
(1.0434317 -0.0024850713 0)
(1.0414642 -0.0010463156 1.1118284e-21)
(1.0394599 -1.7569871e-05 1.0631349e-21)
(1.0375995 0.00057700666 9.4766219e-22)
(1.0359437 0.00085909662 -6.2262783e-22)
(1.0347326 0.00066989454 1.0822768e-23)
(1.033864 0.00041535001 1.8177621e-21)
(0.82397578 -0.00069206745 1.9831382e-22)
(0.83628463 -0.0029505722 -1.3794584e-22)
(0.85032094 -0.005508376 7.3669873e-21)
(0.86503564 -0.0075406383 2.3904932e-22)
(0.88018427 -0.0082932655 -3.2842156e-20)
(0.89513529 -0.0082038489 -3.3324382e-20)
(0.90968268 -0.0079266223 -9.6363755e-23)
(0.92370519 -0.0082300931 2.2554686e-20)
(0.93763281 -0.0092373227 6.3203254e-23)
(0.95244281 -0.011163132 1.6951997e-20)
(0.96803704 -0.013401984 -1.2501301e-23)
(0.98359972 -0.015638192 -7.5928797e-21)
(0.99764459 -0.017707591 -9.9448043e-22)
(1.0091229 -0.019584007 -5.2342233e-21)
(1.0181396 -0.021064644 1.697393e-20)
(1.0248699 -0.022215599 1.1168606e-21)
(1.0297377 -0.023134976 -9.0422271e-22)
(1.0331147 -0.023978278 1.5079882e-21)
(1.0358634 -0.024583557 -2.3361452e-21)
(1.0386274 -0.024761333 -9.4877272e-22)
(1.0413905 -0.024339865 2.5288036e-21)
(1.0440079 -0.023289497 -4.473602e-21)
(1.0463031 -0.021620953 3.3730494e-21)
(1.048123 -0.019413723 0)
(1.0493361 -0.016805196 3.3990096e-21)
(1.0498751 -0.013960373 4.2721778e-21)
(1.049726 -0.011059043 -1.5272863e-21)
(1.0489381 -0.0082644115 3.2804534e-21)
(1.0476035 -0.0057199513 1.0227155e-22)
(1.0458547 -0.0035234462 -9.7859282e-22)
(1.0438277 -0.0017422696 -9.206975e-22)
(1.0416854 -0.00040298875 -5.2403052e-22)
(1.0395458 0.00050902953 -1.0449309e-22)
(1.0375864 0.00098457576 1.2063129e-21)
(1.0358598 0.0011424654 -3.4228674e-22)
(1.0346022 0.00084218701 -7.9204318e-23)
(1.0336998 0.00046478334 7.4265416e-22)
(0.81224892 -0.00038198181 -1.5083435e-22)
(0.82179143 -0.002584583 -1.8981784e-21)
(0.83472402 -0.0051371886 9.5615296e-21)
(0.8489263 -0.0072411363 4.7813768e-21)
(0.86415326 -0.0080700114 -2.4504804e-22)
(0.87942146 -0.0080421772 1.9303718e-22)
(0.894604 -0.0078369426 1.7826262e-20)
(0.90928793 -0.0081142581 -8.3706143e-21)
(0.92370533 -0.0093450956 0)
(0.93817399 -0.01140876 -3.7223886e-21)
(0.95382296 -0.013901263 0)
(0.97021861 -0.016398595 0)
(0.98625388 -0.018608337 -7.914077e-21)
(1.0003142 -0.020536294 9.5472455e-22)
(1.0116042 -0.022034837 3.8759235e-21)
(1.0204281 -0.023163535 4.8067754e-21)
(1.0268813 -0.024136893 -2.7973893e-21)
(1.0315939 -0.025006295 -2.1783741e-21)
(1.0349218 -0.02579024 9.5383274e-22)
(1.0378659 -0.026240508 8.8287118e-22)
(1.0408449 -0.026133376 -4.1574945e-21)
(1.0437595 -0.025353928 1.2602305e-21)
(1.0464235 -0.023903633 9.0120668e-22)
(1.0486668 -0.021830926 2.3084257e-22)
(1.0503314 -0.019254281 1.6384948e-22)
(1.0513134 -0.016335743 8.2836116e-22)
(1.0515661 -0.013259913 -7.1928726e-22)
(1.051108 -0.010209361 -2.0567611e-21)
(1.050011 -0.0073471782 -2.0309035e-22)
(1.0483906 -0.0048023609 -2.9809662e-21)
(1.0463906 -0.0026607705 -1.0393244e-21)
(1.0441551 -0.00097191226 -4.4719895e-22)
(1.0418477 0.00025324221 -1.4032405e-21)
(1.0395835 0.0010392457 8.3467366e-22)
(1.0375344 0.0013907628 -2.5073528e-21)
(1.0357453 0.0014223954 -4.0137231e-22)
(1.0344472 0.0010114072 -6.4647848e-22)
(1.0335156 0.00051267048 0)
(0.80342108 3.3620012e-05 -2.2645331e-22)
(0.80893392 -0.0020699607 -1.3112509e-22)