/*--------------------------------*- C++ -*----------------------------------*\
  =========                 |
  \\      /  F ield         | OpenFOAM: The Open Source CFD Toolbox
   \\    /   O peration     | Website:  https://openfoam.org
    \\  /    A nd           | Version:  8
     \\/     M anipulation  |
\*---------------------------------------------------------------------------*/
FoamFile
{
    version     2.0;
    format      ascii;
    class       volSymmTensorField;
    location    "200.966377299857271";
    object      UPrime2Mean;
}
// * * * * * * * * * * * * * * * * * * * * * * * * * * * * * * * * * * * * * //

dimensions      [0 2 -2 0 0 0 0];

internalField   nonuniform List<symmTensor> 
9200
(
(0.00027895496 7.8638166e-06 -1.1261798e-26 5.3314146e-07 -5.7458916e-28 5.4260472e-48)
(0.0002840685 2.40351e-05 1.1645585e-23 5.1895082e-06 2.0899727e-24 8.9887516e-43)
(0.00023594962 6.6607034e-06 0 5.3423677e-07 0 0)
(0.00029194866 3.8689136e-05 -6.1425579e-24 1.3196057e-05 -1.7406152e-24 2.45246e-43)
(0.00024062176 2.0378877e-05 7.6564832e-24 5.2918649e-06 1.6501101e-24 5.5126707e-43)
(0.00021907903 6.1733939e-06 0 5.3374475e-07 0 0)
(0.00030312613 5.3161042e-05 -6.1885743e-25 2.4874399e-05 -2.3900399e-25 2.4663883e-45)
(0.00024800021 3.2798065e-05 2.5690548e-25 1.339354e-05 1.0273834e-25 1.2599128e-45)
(0.00022358945 1.8909792e-05 0 5.3370087e-06 0 0)
(0.0001974465 5.4070787e-06 0 5.3214497e-07 0 0)
(0.00031667334 6.6737871e-05 1.259453e-23 3.8846067e-05 5.9498951e-24 9.8007106e-43)
(0.00025837525 4.5023815e-05 6.4947026e-24 2.5298177e-05 2.9095909e-24 3.6724801e-43)
(0.00023075762 3.0423172e-05 3.9964175e-24 1.3470014e-05 1.5378303e-24 1.8311176e-43)
(0.00020175822 1.6531111e-05 2.1046442e-25 5.4023417e-06 6.1673834e-26 7.2726983e-46)
(0.00018201325 4.7822575e-06 5.4183355e-28 5.2875502e-07 4.5130531e-29 5.8614341e-50)
(0.00033255744 8.0044172e-05 1.1945441e-23 5.5506904e-05 6.6458421e-24 8.6123101e-43)
(0.00027103625 5.6440845e-05 -5.2569032e-25 3.9441873e-05 -3.4594408e-25 4.5317232e-45)
(0.00024085863 4.1751632e-05 1.3239899e-23 2.5453982e-05 6.9311929e-24 1.9680011e-42)
(0.00020868189 2.6601662e-05 4.4334942e-24 1.3595513e-05 2.0176258e-24 3.0893907e-43)
(0.00018620217 1.4574012e-05 2.3903057e-26 5.4393881e-06 1.9943113e-28 4.1508642e-46)
(0.0001677369 4.125975e-06 -6.3865413e-24 5.2549831e-07 -8.709088e-25 1.4679926e-42)
(0.00035045677 9.2949449e-05 1.301631e-23 7.4208493e-05 8.069317e-24 9.8162808e-43)
(0.00028578615 6.7544552e-05 1.0280709e-23 5.6330549e-05 6.9193675e-24 9.2134837e-43)
(0.00025312977 5.2313076e-05 -8.0733546e-24 3.9640691e-05 -5.2574259e-24 7.265629e-43)
(0.00021848804 3.6480564e-05 -4.5119202e-25 2.574691e-05 -2.7617102e-25 3.1108644e-45)
(0.00019299371 2.3472004e-05 3.7033166e-24 1.3655239e-05 2.0602654e-24 3.1767174e-43)
(0.00017179093 1.2487224e-05 3.0271978e-24 5.4906065e-06 1.3182821e-24 3.215597e-43)
(0.00015677557 3.5195511e-06 3.8687081e-25 5.1945143e-07 6.7280612e-26 9.0005893e-45)
(0.00037036976 0.00010572514 8.2112201e-24 9.5248974e-05 5.5681632e-24 5.7168271e-43)
(0.00030252488 7.823066e-05 8.1024824e-24 7.5211744e-05 6.0179616e-24 5.2919953e-43)
(0.0002673714 6.2484963e-05 9.3266674e-24 5.6503306e-05 7.109958e-24 9.3153432e-43)
(0.0002304851 4.5688321e-05 1.3108187e-25 4.0115527e-05 1.7497609e-26 4.3771458e-45)
(0.00020264835 3.2162252e-05 -9.1170116e-24 2.5897705e-05 -6.9042068e-24 1.8735586e-42)
(0.00017843652 2.0137776e-05 -3.2916385e-24 1.3757842e-05 -2.2563564e-24 3.755389e-43)
(0.00016075489 1.0526907e-05 -3.0318792e-24 5.5110993e-06 -1.7193061e-24 5.5081842e-43)
(0.00014745619 2.9294651e-06 3.6028145e-24 5.1267698e-07 8.5442584e-25 1.456527e-42)
(0.00039227705 0.00011851137 -1.8491581e-23 0.00011895016 -1.3880608e-23 1.8726527e-42)
(0.000321038 8.8600342e-05 8.4439169e-24 9.6436652e-05 7.1185311e-24 6.2428318e-43)
(0.00028310602 7.2091783e-05 2.1076498e-25 7.519898e-05 6.8761981e-26 7.2522311e-45)
(0.00024444138 5.4579787e-05 3.8969009e-24 5.7243889e-05 3.6526579e-24 2.3970112e-43)
(0.00021448214 4.0280859e-05 2.2075716e-25 4.0351339e-05 1.9672535e-26 2.0193388e-44)
(0.00018793654 2.7543151e-05 -1.1414952e-23 2.6161549e-05 -1.0938932e-23 4.6392399e-42)
(0.00016733096 1.7017179e-05 1.4992199e-24 1.3788287e-05 1.4376105e-24 1.9447859e-43)
(0.00015136776 8.5901274e-06 -3.8175151e-24 5.5312535e-06 -2.9908821e-24 1.6587577e-42)
(0.00014057786 2.3857905e-06 -5.0805381e-24 5.0286242e-07 -1.8368837e-24 6.9009142e-42)
(0.0004163646 0.00013147757 1.6633407e-23 0.00014638101 1.3825252e-23 1.6850678e-42)
(0.00034107373 9.8401842e-05 -2.599859e-24 0.00012015727 -2.4057429e-24 2.1279618e-43)
(0.00030040151 8.1290641e-05 -4.0474448e-25 9.6002287e-05 -3.6137286e-25 2.2070261e-45)
(0.0002601936 6.301828e-05 -5.3715479e-25 7.6199872e-05 -1.4162001e-25 7.7704772e-44)
(0.00022835783 4.8086515e-05 -1.2630534e-24 5.7581577e-05 -1.3895736e-24 3.4457976e-44)
(0.00019963427 3.4470083e-05 2.7318127e-25 4.0823214e-05 2.1055009e-26 5.2446503e-44)
(0.00017677084 2.3211443e-05 3.158818e-24 2.6286105e-05 3.9531148e-24 6.0194917e-43)
(0.00015789063 1.3929343e-05 4.026769e-24 1.3827451e-05 5.0750077e-24 1.8943431e-42)
(0.00014446975 6.7658965e-06 1.4491269e-24 5.5161021e-06 1.792583e-24 5.9289261e-43)
(0.00013517541 1.8748468e-06 1.6051586e-25 4.9157525e-07 1.4006766e-25 4.1605671e-44)
(0.00044342326 0.00014473876 -7.8114367e-24 0.00017942659 -6.8332058e-24 3.061751e-43)
(0.00036319448 0.00010736016 2.716748e-24 0.00014740884 2.87127e-24 1.7646476e-43)
(0.0003193117 8.9894461e-05 5.998284e-24 0.00011894548 6.4341659e-24 4.1929964e-43)
(0.00027766076 7.1073987e-05 -5.9454183e-24 9.7139327e-05 -7.0160491e-24 5.1998158e-43)
(0.00024394033 5.550579e-05 5.379371e-24 7.6613139e-05 7.5604338e-24 8.8679945e-43)
(0.00021337729 4.1121884e-05 -1.1078657e-23 5.8382651e-05 -1.6422036e-23 4.7537883e-42)
(0.00018844236 2.9046164e-05 5.8129451e-26 4.1093349e-05 1.1543603e-26 5.4250079e-45)
(0.00016730712 1.8892036e-05 6.2771094e-24 2.6450602e-05 1.1331522e-23 4.9727269e-42)
(0.00015099928 1.102451e-05 -2.0726882e-24 1.3784008e-05 -4.1321204e-24 1.2724854e-42)
(0.00013907143 5.0149755e-06 2.0819552e-24 5.4854143e-06 5.5994344e-24 5.8582007e-42)
(0.00013157933 1.4184186e-06 -2.9053639e-26 4.7750273e-07 -2.6286177e-25 1.5207993e-43)
(0.00047515018 0.00015836428 -8.187981e-25 0.00022116693 -1.8452379e-24 7.4600254e-44)
(0.00039001223 0.00011557662 -6.1922615e-24 0.00018012253 -8.0123762e-24 7.3523197e-43)
(0.00034050652 9.7790702e-05 -6.8854761e-24 0.00014467477 -7.9633049e-24 4.6469338e-43)
(0.00029683085 7.8586783e-05 0 0.00011994459 0 0)
(0.00026116703 6.2605763e-05 1.5246579e-25 9.7603416e-05 1.9736564e-25 6.9615965e-46)
(0.00022892136 4.7513979e-05 -5.5660583e-25 7.7845229e-05 -4.5627172e-25 7.9106478e-44)
(0.00020219926 3.4620605e-05 -1.7464892e-24 5.8907664e-05 -3.4639351e-24 2.0955922e-43)
(0.00017897216 2.3571887e-05 -3.0337737e-24 4.1470241e-05 -7.1669176e-24 1.2709111e-42)
(0.00016047451 1.4810159e-05 2.0659692e-26 2.6455754e-05 -2.4857449e-25 5.7480321e-44)
(0.00014565001 8.2248133e-06 -1.1309755e-24 1.3709246e-05 -5.2854008e-24 2.0978587e-42)
(0.00013552927 3.409131e-06 6.2859646e-26 5.4158407e-06 -2.2883779e-24 1.0000544e-42)
(0.00012916981 1.0068854e-06 -2.3396317e-25 4.6155437e-07 1.501683e-25 5.202249e-44)
(0.00051423223 0.00017214841 1.1292051e-25 0.00027690751 -3.9523449e-25 5.0865483e-45)
(0.00042489635 0.000122548 4.825004e-26 0.00022150429 2.5739187e-24 1.8270375e-43)
(0.00036532571 0.00010462491 0 0.00017448137 0 0)
(0.00031812303 8.5335172e-05 0 0.00014519902 0 0)
(0.000280159 6.9313889e-05 -2.0130975e-24 0.00012042029 -3.3505779e-24 1.2761302e-43)
(0.00024625939 5.3700112e-05 1.2040122e-24 9.9377403e-05 3.0793031e-24 3.6859314e-43)
(0.00021774071 4.0008832e-05 -3.3487878e-24 7.8740313e-05 -8.1873417e-24 1.0032793e-42)
(0.0001927718 2.7994083e-05 3.2877464e-24 5.9666848e-05 9.7652877e-24 1.62818e-42)
(0.00017222622 1.8387367e-05 1.6868113e-25 4.1606795e-05 7.2982273e-25 1.3246272e-44)
(0.00015525583 1.0833698e-05 -2.351804e-27 2.6412767e-05 4.3103214e-27 8.7758214e-48)
(0.00014222142 5.6550985e-06 -2.0298251e-25 1.3540868e-05 6.3262823e-24 3.0881067e-42)
(0.00013321176 1.9239828e-06 1.5198956e-24 5.3195022e-06 -4.3672207e-24 3.7968396e-42)
(0.00012802086 6.5621062e-07 -6.2941909e-24 4.4319986e-07 2.4530433e-24 1.4624417e-41)
(0.00056476919 0.00018503752 1.8857428e-24 0.00035404971 1.6472168e-23 2.1486437e-42)
(0.00047400532 0.00012759174 3.2938607e-25 0.0002771137 -3.8234486e-25 5.3785296e-45)
(0.00039648043 0.00010996877 -3.7100626e-24 0.00021115073 -1.3992163e-24 3.3181907e-43)
(0.000343328 9.1299912e-05 2.7099913e-24 0.00017429586 2.5483592e-24 2.5775466e-43)
(0.0003014406 7.5534282e-05 -2.0998232e-24 0.00014562869 -3.3842301e-24 1.9304223e-43)
(0.0002653812 5.9630898e-05 1.3138866e-25 0.00012279818 4.0799323e-25 3.798712e-44)
(0.00023507559 4.5296341e-05 1.253093e-24 0.00010078818 3.3372822e-24 1.1269138e-43)
(0.0002083805 3.2287083e-05 -1.9437044e-27 8.0069421e-05 -1.2226989e-26 3.6190653e-46)
(0.00018615331 2.1675622e-05 1.6738344e-24 6.0084211e-05 9.8740735e-24 1.671406e-42)
(0.00016718759 1.3273993e-05 2.5296288e-25 4.1698407e-05 7.6435451e-24 1.4704171e-42)
(0.0001520489 7.1592937e-06 -1.8559126e-25 2.6184571e-05 2.3977603e-24 2.2746937e-43)
(0.00014007464 3.2658164e-06 -1.6072687e-24 1.3311055e-05 4.8178847e-24 1.8217589e-42)
(0.00013220544 6.1917817e-07 -1.7483785e-24 5.1840943e-06 2.0542865e-24 8.5599512e-43)
(0.00012771529 3.596615e-07 2.5530483e-24 4.2302033e-07 -6.6172386e-25 1.1342437e-42)
(0.00063051826 0.00019523792 -2.3431394e-23 0.00046173804 -6.0928623e-23 1.0949571e-41)
(0.00054781846 0.00012995072 1.6644679e-23 0.00035704375 -2.0618567e-23 6.7069253e-42)
(0.0004388826 0.00011301694 -2.1786209e-24 0.00025929827 -4.8428483e-24 1.0862835e-43)
(0.00037538658 9.6185599e-05 -5.0786142e-26 0.00020974412 4.8031341e-25 7.0154469e-45)
(0.00032677015 8.1280419e-05 -4.950046e-26 0.00017442298 -2.8673447e-25 3.1712802e-45)
(0.00028681035 6.5242126e-05 -1.50653e-25 0.00014865427 -7.6513549e-27 8.2951287e-44)
(0.00025418207 5.0434725e-05 1.2111414e-24 0.00012489071 3.6459892e-24 1.0958506e-43)
(0.00022582649 3.6539261e-05 -1.0250878e-24 0.00010291045 -4.4538948e-24 1.969967e-43)
(0.0002019169 2.4869512e-05 7.6753484e-26 8.0955487e-05 4.5961744e-26 1.5250253e-44)
(0.00018136014 1.535645e-05 2.6302117e-26 6.0484837e-05 -9.8308946e-25 1.7963533e-44)
(0.00016426141 8.5184722e-06 1.8479476e-26 4.1500828e-05 -1.8461711e-25 8.5153352e-46)
(0.00015022426 3.7002924e-06 4.5949539e-25 2.5840166e-05 -5.463848e-25 3.1520096e-44)
(0.00013930639 1.1629371e-06 3.5379628e-24 1.2986147e-05 -6.4703235e-24 3.4143873e-42)
(0.00013208101 -5.2000128e-07 -2.2507999e-24 5.0176441e-06 2.0327664e-24 8.8103974e-43)
(0.00012819925 1.2700392e-07 2.444496e-24 4.0109321e-07 -4.9406418e-25 6.7979815e-43)
(0.00071518155 0.00019860749 1.6055536e-23 0.00061391431 -3.6641178e-23 6.7106196e-42)
(0.00065822504 0.0001265696 -2.8463492e-23 0.00047288606 6.362992e-24 3.7331068e-42)
(0.00050151358 0.00011278397 7.6966992e-24 0.00032789268 -5.2992636e-24 9.9518258e-43)
(0.00041938866 9.9516653e-05 -6.1298041e-24 0.00025618221 -1.4327179e-24 6.3505792e-43)
(0.00035905474 8.6386592e-05 3.6621071e-24 0.0002093474 3.3073123e-24 3.6822995e-43)
(0.00031223075 7.0633058e-05 -5.6429975e-24 0.00017813721 -1.2571192e-23 1.1522472e-42)
(0.00027559952 5.54329e-05 3.1917944e-24 0.0001516242 9.1153459e-24 1.0103241e-42)
(0.00024508768 4.0705154e-05 -4.3685693e-26 0.00012804989 -9.3825661e-26 2.3792042e-45)
(0.00021951196 2.8029296e-05 -3.4989959e-25 0.00010448998 -3.3483433e-24 1.1143648e-43)
(0.00019741828 1.7338331e-05 4.5561358e-25 8.1887717e-05 -5.3672338e-26 1.30718e-43)
(0.0001787983 9.4305458e-06 2.9533007e-24 6.0470104e-05 -2.4809437e-23 1.0562562e-41)
(0.00016284812 3.9769712e-06 -9.2875271e-25 4.1132077e-05 5.8014525e-24 9.3940331e-43)
(0.00014987537 6.2972758e-07 -1.3002682e-24 2.5303401e-05 2.9705144e-24 3.6941976e-43)
(0.00013948264 -6.8435522e-07 -9.2845398e-25 1.2586702e-05 9.2137083e-25 7.5232519e-44)
(0.00013278845 -1.4526307e-06 -4.3600682e-25 4.8169288e-06 1.0006727e-25 8.4774752e-45)
(0.00012917456 -4.6210429e-08 -3.3131711e-24 3.7796377e-07 5.3038249e-25 8.5014721e-43)
(0.00081464187 0.00018340905 0 0.00082384839 0 0)
(0.00081893887 0.00011328982 -5.4182803e-23 0.00064290338 2.6207025e-23 1.0008471e-41)
(0.00059641995 0.00010710318 4.7866527e-24 0.0004282871 1.3336567e-23 4.8066121e-43)
(0.00048454447 0.00010063094 0 0.0003221485 0 0)
(0.00040349601 9.0575223e-05 0 0.00025511324 0 0)
(0.00034444775 7.5720591e-05 0 0.00021380061 0 0)
(0.00030090848 6.0375681e-05 -7.2777035e-26 0.00018217217 4.4872148e-25 1.0625157e-44)
(0.00026667309 4.4825058e-05 1.7273804e-24 0.00015607356 9.8270491e-24 6.5498777e-43)
(0.00023896142 3.1155342e-05 -8.3593947e-25 0.00013057258 -1.2275213e-24 3.9525501e-43)
(0.00021535357 1.9255057e-05 -2.8053521e-25 0.00010621775 9.9114961e-24 9.5840639e-43)
(0.00019526815 1.0199958e-05 -2.8039061e-25 8.2268767e-05 1.2021382e-25 1.8012367e-44)
(0.00017792594 3.6812965e-06 -1.4819942e-24 6.0231139e-05 5.4143822e-24 5.0975632e-43)
(0.00016302786 -9.1749249e-08 -6.0568444e-26 4.0452097e-05 -2.6895949e-25 5.5979701e-45)
(0.00015057469 -2.105923e-06 2.1631868e-24 2.4617041e-05 -3.3702812e-24 4.932036e-43)
(0.00014055054 -2.2002481e-06 8.8779026e-25 1.2102291e-05 -6.1376119e-25 3.8273345e-44)
(0.00013401733 -2.1882411e-06 1.7457811e-24 4.5887198e-06 -9.5463225e-25 2.1775702e-43)
(0.0001305397 -1.5696506e-07 0 3.5400729e-07 0 0)
(0.0009078203 0.00013158187 4.5823056e-23 0.0010988637 -1.1224995e-22 2.2322789e-41)
(0.001039729 8.2870687e-05 1.5991825e-22 0.0008913938 -2.5547338e-23 4.1651602e-41)
(0.00073659621 9.1831495e-05 -1.0099287e-22 0.00057823143 3.6617637e-23 3.5368465e-41)
(0.00058465704 9.8372325e-05 -2.5184427e-23 0.00042051069 1.6275966e-23 5.0504695e-42)
(0.00046932428 9.3232857e-05 -1.4068012e-23 0.00031983357 1.4529881e-24 2.2384175e-42)
(0.00038849407 8.0325425e-05 0 0.00026040225 0 0)
(0.00033282255 6.5227396e-05 -4.0849557e-24 0.00021916363 -2.0645841e-24 9.6141529e-43)
(0.00029205559 4.8979271e-05 6.3055497e-25 0.00018814301 -5.8353647e-25 9.4836363e-44)
(0.0002607466 3.4283588e-05 2.2096708e-24 0.00015978076 1.6722965e-23 2.3723062e-42)
(0.00023519515 2.1158927e-05 -1.4874739e-24 0.00013339398 -1.3355116e-24 6.5347694e-43)
(0.00021367263 1.0853504e-05 9.2446891e-25 0.00010725892 -6.0128837e-24 3.5190711e-43)
(0.00019501982 3.1605559e-06 -5.4934301e-25 8.2385741e-05 3.1791186e-25 3.1650099e-44)
(0.00017878261 -1.5274338e-06 -3.748206e-24 5.9531262e-05 1.093492e-23 2.1626686e-42)
(0.00016440431 -3.7754769e-06 8.4615842e-24 3.9531017e-05 -1.4394789e-23 5.6164537e-42)
(0.00015225691 -4.3766744e-06 3.0290956e-24 2.3753428e-05 -2.6877606e-24 3.7614955e-43)
(0.00014219244 -3.4047567e-06 1.3077611e-23 1.154958e-05 -1.0674233e-23 1.0903375e-41)
(0.00013566445 -2.7079831e-06 5.6659946e-24 4.3359263e-06 -2.4975789e-24 1.6034526e-42)
(0.00013208109 -2.0964316e-07 5.2413622e-24 3.2972682e-07 -6.0346915e-25 1.3322888e-42)
(0.00097607636 2.7240908e-05 -8.6034794e-24 0.0014391133 8.989461e-24 2.2344732e-43)
(0.001299994 1.7830627e-05 1.2954546e-22 0.0012386477 -2.6804347e-23 1.8640009e-41)
(0.00093852713 5.9984853e-05 2.504002e-23 0.00080372219 8.4741395e-24 1.1501898e-42)
(0.00073406669 8.8838316e-05 -5.1720979e-23 0.00056903555 9.7098637e-24 8.0776763e-42)
(0.00057175432 9.3853391e-05 3.3075322e-24 0.00041756271 -8.4322826e-25 6.461304e-44)
(0.00045317578 8.4018004e-05 -4.9954057e-24 0.00032588906 -1.445896e-23 8.3051427e-43)
(0.00037627949 6.9841392e-05 6.7712012e-24 0.00026744202 -1.6489985e-23 4.0196267e-42)
(0.00032390376 5.3119175e-05 8.2389622e-24 0.00022686914 5.7717922e-24 3.7354878e-42)
(0.0002862692 3.7493883e-05 1.7448699e-24 0.00019324706 2.7811239e-24 3.6386456e-43)
(0.00025741916 2.308149e-05 1.0354786e-24 0.00016397703 -1.2751242e-23 1.0583327e-42)
(0.00023402624 1.1461721e-05 4.855734e-25 0.00013540094 1.939359e-25 3.7042601e-44)
(0.00021413853 2.4209854e-06 3.770999e-24 0.00010801855 -1.4760631e-23 2.1249481e-42)
(0.00019666411 -3.3010747e-06 -7.7679845e-25 8.187622e-05 4.9906941e-24 4.3397066e-43)
(0.00018103241 -6.3326078e-06 -8.7160739e-25 5.8474886e-05 8.7314913e-25 2.6469904e-44)
(0.0001668794 -6.871634e-06 -1.5947087e-24 3.8311962e-05 1.323156e-24 7.5851054e-44)
(0.00015460168 -6.2149021e-06 -2.3294128e-24 2.2745063e-05 2.4368523e-24 2.8769341e-43)
(0.00014429482 -4.2571593e-06 4.9512162e-24 1.0934428e-05 -3.4422122e-24 1.2191988e-42)
(0.00013750263 -3.0210998e-06 4.4154128e-26 4.0654724e-06 6.1676751e-26 2.7127741e-45)
(0.00013368927 -2.0593656e-07 5.0635329e-24 3.056252e-07 -5.2676152e-25 1.1295934e-42)
(0.0010149311 -0.00014280968 -7.86368e-23 0.0018344938 6.6986023e-23 1.3790545e-41)
(0.0015539016 -0.00010773668 -2.2347509e-22 0.0016980259 2.0733795e-23 3.9911465e-41)
(0.0012039987 1.4780067e-06 5.4331573e-22 0.0011338595 -5.5950029e-23 3.4186365e-40)
(0.00095066935 6.5277244e-05 4.0308944e-23 0.00079512685 -1.8525809e-23 3.3881953e-42)
(0.00072788421 8.9021013e-05 -1.7585464e-23 0.00056622997 -1.0543339e-23 9.7610196e-43)
(0.00055350622 8.6400109e-05 -2.8402463e-24 0.000425021 -8.9194911e-24 2.5067238e-43)
(0.00043986756 7.3802652e-05 -2.7939588e-24 0.00033504796 5.2343835e-25 9.8495138e-44)
(0.00036709005 5.7053572e-05 -4.2852698e-24 0.00027703282 -1.475574e-23 1.0725978e-42)
(0.00031816056 4.0728583e-05 1.2937051e-24 0.00023351243 1.0385381e-24 8.8079237e-44)
(0.00028333227 2.5136895e-05 3.1815242e-24 0.0001990687 1.7231533e-23 3.0676561e-42)
(0.00025683106 1.209012e-05 3.622862e-24 0.00016724312 -2.3176269e-23 3.4028942e-42)
(0.00023528943 1.5669939e-06 -1.5578707e-24 0.00013714869 3.4992468e-24 1.3097927e-43)
(0.00021667988 -5.4314067e-06 -3.0084366e-24 0.00010797571 6.9368195e-24 4.9021821e-43)
(0.00019995117 -9.3756714e-06 3.2355114e-25 8.0887939e-05 -5.0791421e-25 3.7592232e-45)
(0.00018452478 -1.0433601e-05 -1.209151e-24 5.6957714e-05 7.6300003e-25 3.8806757e-44)
(0.00017014349 -9.4291368e-06 -8.7606634e-24 3.684488e-05 1.0750044e-23 3.4658081e-42)
(0.0001574704 -7.541463e-06 9.4572757e-25 2.1599214e-05 -1.7080853e-24 1.9479498e-43)
(0.00014661509 -4.7745671e-06 -9.5626821e-24 1.0273805e-05 5.5099686e-24 3.3934336e-42)
(0.00013941916 -3.1280347e-06 -2.5240156e-24 3.7834205e-06 8.397526e-25 2.1695255e-43)
(0.00013522358 -1.5061786e-07 -5.5476433e-24 2.8219378e-07 5.1101153e-25 1.1967204e-42)
(0.0010482927 -0.00038008542 -1.439268e-23 0.0022659084 3.6212527e-23 7.6484232e-43)
(0.0017822491 -0.00030786526 -4.4671368e-22 0.0022677873 5.0012655e-23 1.3030753e-40)
(0.0014873761 -0.00010161487 -5.6195131e-23 0.0015922035 8.9561211e-23 7.9984542e-42)
(0.001245869 1.7634344e-05 -1.2824115e-22 0.0011304296 7.6761798e-24 1.7619388e-41)
(0.00095627236 7.2295085e-05 6.3101658e-24 0.00079394272 -2.7442392e-23 1.3142443e-42)
(0.00070883956 8.5300269e-05 2.7615155e-23 0.00057672868 1.0771329e-24 2.1499004e-42)
(0.00053832471 7.6498866e-05 -3.9527292e-23 0.0004366067 5.3213302e-24 9.263903e-42)
(0.00043006342 6.0374529e-05 -4.0110457e-23 0.00034669355 4.3674349e-24 1.9822744e-41)
(0.00036124467 4.3814457e-05 1.1761285e-25 0.00028524753 2.3988547e-23 2.3328011e-42)
(0.00031551925 2.729449e-05 0 0.00024112753 0 0)
(0.00028327139 1.2868837e-05 -2.6513905e-24 0.00020387188 1.7507253e-23 1.6140758e-42)
(0.00025894127 7.0768338e-07 -2.4944179e-24 0.00017032278 -8.4669014e-25 4.5917486e-43)
(0.00023882446 -7.7847803e-06 4.6618289e-24 0.00013792114 -1.641572e-23 2.1639289e-42)
(0.00022116859 -1.2960168e-05 -1.2831895e-24 0.0001073282 8.0029828e-24 9.5896456e-43)
(0.00020465534 -1.465484e-05 4.4870523e-24 7.9244914e-05 -6.5149379e-24 5.9798009e-43)
(0.00018899342 -1.3902174e-05 -8.3908439e-24 5.5047241e-05 1.0988357e-23 2.4193794e-42)
(0.00017401976 -1.1314345e-05 -2.4665519e-24 3.513331e-05 1.1786555e-24 1.0954578e-43)
(0.00016060717 -8.3829131e-06 2.7767906e-24 2.0348573e-05 -2.5664619e-24 3.8102858e-43)
(0.00014902976 -4.9497123e-06 -5.5033413e-24 9.5824313e-06 3.0771289e-24 1.1627032e-42)
(0.00014125836 -3.0422922e-06 -7.666376e-25 3.4968714e-06 1.7059368e-25 1.1486916e-44)
(0.0001365938 -4.8346305e-08 -5.2248535e-24 2.5989347e-07 4.4261009e-25 1.0175095e-42)
(0.0011305941 -0.00066870672 7.5066838e-23 0.0027155822 1.3612847e-23 2.7684454e-41)
(0.0019747139 -0.00059034856 -4.6190766e-22 0.0029299193 4.3670992e-23 1.268804e-40)
(0.0017482619 -0.00026810373 -5.0147382e-22 0.0021875762 1.4390892e-23 1.6999006e-40)
(0.0015870353 -7.1033157e-05 3.6809609e-22 0.0016062658 3.613023e-23 1.042001e-40)
(0.0012736277 3.2800341e-05 1.601259e-22 0.0011358971 -1.0319462e-23 2.6702442e-41)
(0.00093896421 7.4446218e-05 -1.0727408e-23 0.00080977776 -1.8956522e-23 6.93892e-43)
(0.00069293771 7.6730267e-05 0 0.00059249048 0 0)
(0.00052720068 6.2198605e-05 -2.6616363e-24 0.00044974059 -3.2818405e-23 3.0220428e-42)
(0.00042388611 4.6372095e-05 1.1000633e-23 0.00035638493 -1.2399568e-23 2.1741354e-42)
(0.00035874378 2.9433891e-05 8.5204095e-24 0.0002946618 2.8932176e-23 5.2713711e-42)
(0.00031586823 1.3814971e-05 -3.0476789e-24 0.00024767074 9.3272203e-24 4.9221684e-43)
(0.00028620277 -2.1512404e-08 -1.2556271e-24 0.00020863231 -2.2683094e-24 1.6673368e-43)
(0.00026354758 -1.0235369e-05 6.0793714e-25 0.00017227865 9.393227e-27 1.6733749e-44)
(0.00024465091 -1.6936269e-05 -3.5681236e-24 0.00013797414 7.1681677e-24 4.0801313e-43)
(0.00022729924 -1.9635432e-05 3.131838e-24 0.00010580341 -7.4442716e-24 6.1808269e-43)
(0.00021058768 -1.9237702e-05 -3.3703109e-24 7.7026575e-05 6.0715541e-24 5.6036262e-43)
(0.00019419893 -1.6527526e-05 1.2817437e-24 5.2736632e-05 -1.3952612e-24 4.1483566e-44)
(0.00017824684 -1.2562729e-05 -7.2767543e-24 3.3226409e-05 6.5303742e-24 1.4674347e-42)
(0.00016386143 -8.7110116e-06 -2.661324e-24 1.902113e-05 1.1004029e-24 1.0693614e-43)
(0.00015136144 -4.805334e-06 -4.9920077e-25 8.8777794e-06 1.2929458e-25 3.6938673e-45)
(0.00014292247 -2.777829e-06 -3.085259e-24 3.2124107e-06 9.2831737e-25 3.2845935e-43)
(0.00013771632 9.4854281e-08 0 2.3913479e-07 0 0)
(0.0013273167 -0.00098424344 -1.0573987e-23 0.0031678389 7.1693431e-23 5.3659389e-42)
(0.0021644192 -0.00094185635 2.7830558e-22 0.0036624783 -3.0930189e-23 4.6772174e-41)
(0.0019722395 -0.0005096377 5.0104983e-24 0.0029064886 -2.7817603e-23 3.0493118e-43)
(0.0019201332 -0.00022126984 5.342391e-22 0.0022410307 -3.2343169e-23 1.7359326e-40)
(0.0016605405 -4.5263961e-05 1.8041436e-22 0.001629755 -5.0713746e-23 2.5903569e-41)
(0.0012657341 4.2088046e-05 -7.5104112e-23 0.0011632675 -4.0480499e-24 5.8953632e-42)
(0.00092602403 6.8327975e-05 1.2147876e-23 0.00083151379 5.90735e-23 5.357952e-42)
(0.0006809654 6.1830186e-05 -6.7031809e-23 0.00060783586 -8.9745862e-24 1.3834797e-41)
(0.00052016362 4.7516713e-05 -8.8869909e-24 0.00045994275 -1.2072013e-23 7.765165e-43)
(0.00042123721 3.1272638e-05 -2.2135981e-24 0.00036743435 3.8612074e-25 5.8790352e-44)
(0.0003592515 1.4871917e-05 4.169741e-25 0.00030301652 -1.9295553e-25 3.327171e-45)
(0.00031948245 -5.5615949e-07 5.8073315e-24 0.00025439208 2.7434338e-24 1.2143328e-42)
(0.00029189983 -1.262286e-05 8.0485837e-25 0.00021215651 -2.4553852e-24 3.0888026e-44)
(0.00027081119 -2.1151184e-05 -1.1797318e-23 0.0001734449 1.2962061e-23 2.3930123e-42)
(0.00025238283 -2.522321e-05 -1.1131249e-23 0.00013690934 1.766916e-23 2.5830883e-42)
(0.00023497995 -2.5583593e-05 -9.5601132e-24 0.00010349389 1.397228e-23 2.0894446e-42)
(0.000217422 -2.2815017e-05 2.183419e-24 7.4202923e-05 -1.5523794e-24 6.1204624e-44)
(0.00019988924 -1.8351486e-05 1.4127942e-23 5.0092425e-05 -1.410282e-23 4.5357931e-42)
(0.00018262903 -1.3109737e-05 1.1291845e-25 3.116717e-05 -3.581141e-25 7.7004595e-45)
(0.00016703049 -8.5589459e-06 -4.0329195e-24 1.7651823e-05 2.5261487e-24 4.326121e-43)
(0.00015350275 -4.3597202e-06 0 8.1766774e-06 0 0)
(0.00014431767 -2.3543497e-06 6.7068415e-24 2.9368398e-06 -1.8901628e-24 1.5406067e-42)
(0.00013852768 2.7313758e-07 2.0120322e-25 2.2027685e-07 -6.6346941e-27 5.6483481e-46)
(0.0017015337 -0.0013027232 -9.2476251e-23 0.003608878 4.0534206e-23 1.5589542e-40)
(0.0024214239 -0.0013231381 7.1884661e-22 0.0044415186 4.7644165e-23 3.9424994e-40)
(0.0021685508 -0.00081952322 -6.6926501e-22 0.0037287167 -3.512036e-23 2.9444863e-40)
(0.0022125884 -0.00044980213 -2.7213971e-22 0.0030265467 -8.1317831e-23 4.5347308e-41)
(0.0020556739 -0.00018367082 5.0775897e-22 0.0023010023 5.5832415e-23 1.5089018e-40)
(0.0016869152 -2.6354341e-05 0 0.0016798084 0 0)
(0.0012621087 3.8512904e-05 3.3456622e-24 0.0011952806 2.0448081e-23 4.3234564e-43)
(0.00091728931 5.3921816e-05 -3.8592578e-23 0.00084954484 -3.4490967e-23 3.929247e-42)
(0.00067300918 4.6506307e-05 -4.6617537e-23 0.00061825329 2.152923e-24 7.2824673e-42)
(0.00051673512 3.2159121e-05 -4.1149589e-23 0.00047193345 2.328533e-23 1.2513098e-41)
(0.00042145837 1.5874108e-05 3.6609685e-24 0.00037749161 2.1628865e-23 1.7554524e-42)
(0.00036325962 -8.9304679e-07 3.5644407e-24 0.00031185983 1.0598899e-23 9.7282626e-43)
(0.00032614163 -1.4846601e-05 -1.9072357e-25 0.00025981147 -1.3884917e-23 1.2632042e-42)
(0.00030063986 -2.5408122e-05 -7.0693531e-24 0.00021487241 1.8560352e-23 1.7639099e-42)
(0.00028029389 -3.1256349e-05 1.1372329e-23 0.00017325829 -2.4591365e-23 3.8785567e-42)
(0.00026205422 -3.2802376e-05 2.3663019e-23 0.00013482537 -3.3459458e-23 9.4001573e-42)
(0.00024378235 -3.0382783e-05 2.7657331e-24 0.00010032402 2.3892318e-24 5.9152241e-43)
(0.00022494908 -2.5429825e-05 6.1429609e-24 7.084923e-05 -6.6290355e-24 7.0875693e-43)
(0.00020580267 -1.9255261e-05 -1.4748554e-23 4.7173536e-05 1.4863129e-23 5.5314465e-42)
(0.00018694409 -1.2998569e-05 1.4325753e-24 2.9010582e-05 -2.710971e-24 4.1730419e-43)
(0.00016998445 -7.9420757e-06 8.0335907e-24 1.6275539e-05 -4.9420654e-24 1.8536824e-42)
(0.00015533989 -3.6441676e-06 -6.1490412e-24 7.4961275e-06 2.8907404e-24 1.4442407e-42)
(0.00014538135 -1.7940982e-06 3.5396672e-24 2.675518e-06 -1.0911871e-24 5.9590793e-43)
(0.00013897891 4.8148608e-07 1.6317714e-25 2.0361861e-07 -4.5926765e-27 3.4865014e-46)
(0.0022858817 -0.0016035944 1.0774334e-22 0.0040272816 -2.0690539e-22 1.4136864e-41)
(0.0027908765 -0.0017084524 5.1860191e-22 0.005244717 -1.7691874e-23 2.7099705e-40)
(0.0024006065 -0.0011732941 1.461844e-22 0.0046305857 -2.4289629e-22 2.2577398e-41)
(0.0024601419 -0.00075592994 1.6514147e-21 0.0039397805 -1.1177522e-23 1.5532428e-39)
(0.002416932 -0.00040038831 -3.910436e-22 0.0031500286 -1.0339999e-22 8.4400597e-41)
(0.0021403177 -0.000152229 5.5108939e-22 0.0023932021 7.4796888e-23 1.7470481e-40)
(0.001710492 -2.908945e-05 3.1553379e-24 0.0017295922 2.9261831e-23 5.9272313e-43)
(0.0012631216 2.5482404e-05 2.1804091e-22 0.0012177529 1.5544698e-23 5.2419666e-41)
(0.00091191858 3.9813875e-05 -1.7457231e-23 0.00085956623 -3.5212872e-23 2.1512583e-42)
(0.00066794825 3.1214215e-05 -2.3474122e-23 0.00063009146 -5.8812326e-24 1.9513501e-42)
(0.00051579555 1.6392763e-05 -2.2006544e-25 0.0004833471 2.8566619e-23 1.9895498e-42)
(0.00042530162 -1.1198639e-06 -1.8285866e-23 0.00038844613 -8.4545547e-24 4.5179409e-42)
(0.00037060233 -1.6861527e-05 -3.1408294e-24 0.00031937491 1.5501291e-23 8.5787835e-43)
(0.00033628601 -2.959445e-05 7.8419121e-25 0.00026447834 1.2610865e-25 1.3938177e-44)
(0.00031195119 -3.7522854e-05 1.4287801e-23 0.00021603573 -2.1902207e-23 2.7736168e-42)
(0.00029215721 -4.0744943e-05 1.0726016e-24 0.00017182063 -2.8721465e-24 6.2296336e-44)
(0.00027314166 -3.9128534e-05 4.4400307e-25 0.00013157337 6.8056875e-25 2.2572421e-44)
(0.00025356826 -3.4069121e-05 1.0911445e-23 9.6361332e-05 -1.2559351e-23 1.8719032e-42)
(0.00023280821 -2.6886811e-05 0 6.7039621e-05 0 0)
(0.00021170039 -1.9286918e-05 2.2806423e-24 4.4058098e-05 -1.5194014e-24 6.6062525e-44)
(0.00019101842 -1.2228775e-05 5.7638224e-25 2.6816591e-05 -3.2030769e-25 4.8986134e-45)
(0.00017257994 -6.9058506e-06 -9.4104307e-25 1.4926281e-05 4.2442812e-25 1.5769001e-44)
(0.00015679648 -2.6916269e-06 -5.7258134e-25 6.850245e-06 -5.5403373e-27 5.9368195e-45)
(0.00014607236 -1.1204231e-06 -5.681461e-24 2.433154e-06 1.4774398e-24 1.2401984e-42)
(0.00013904995 7.1174616e-07 -2.3159687e-24 1.8925509e-07 1.7881382e-25 2.8652858e-43)
(0.0030805203 -0.0018708527 -1.0520971e-22 0.0044167115 9.3748516e-23 6.2177688e-41)
(0.0033156426 -0.0020699584 -2.1976507e-22 0.0060493092 6.0850081e-23 8.2030729e-41)
(0.0027339689 -0.0015372378 -1.8713041e-22 0.0055872436 6.6552191e-23 3.4881826e-41)
(0.0027083338 -0.0011197188 -1.9012379e-22 0.0049563601 1.2279899e-23 2.4093888e-41)
(0.0027281711 -0.00070380549 -1.4314572e-21 0.004152199 -4.9572185e-23 1.0697122e-39)
(0.0025757746 -0.0003521413 -9.4292252e-23 0.0033149135 9.6763379e-23 7.5824605e-42)
(0.0022216773 -0.00015295929 2.1590002e-24 0.0024793765 4.5876744e-23 9.9227976e-43)
(0.0017373548 -4.2997911e-05 -2.202452e-23 0.0017609598 -3.9814092e-24 3.6711148e-43)
(0.0012668042 1.5540413e-05 -1.5748167e-22 0.0012265467 -1.1582752e-23 2.8372946e-41)
(0.00090653354 2.6816699e-05 -3.7127598e-24 0.000870688 4.1993831e-23 2.5485592e-42)
(0.00066421708 1.5535196e-05 -2.4388416e-23 0.00064144754 -1.7403469e-23 2.748985e-42)
(0.00051843803 -1.5177607e-06 4.389492e-24 0.0004962632 -7.4926465e-25 1.2690916e-43)
(0.0004327841 -1.8702684e-05 9.3871212e-24 0.00039805719 3.8209758e-24 1.1643827e-42)
(0.00038190566 -3.3599638e-05 3.480517e-24 0.00032626476 -7.60198e-24 2.1291883e-43)
(0.00034943299 -4.3857152e-05 3.7718342e-24 0.00026745377 -2.5947988e-25 2.2777549e-43)
(0.0003261352 -4.9195862e-05 -2.4351616e-23 0.00021575608 3.1368787e-23 5.9676817e-42)
(0.00030582638 -4.8944953e-05 -4.0393321e-23 0.0001688673 3.6829606e-23 1.342337e-41)
(0.00028559413 -4.4216507e-05 -1.7403668e-23 0.00012720543 2.1227155e-23 4.0591426e-42)
(0.00026385227 -3.6347095e-05 -2.376344e-23 9.1687376e-05 2.4613472e-23 7.6984538e-42)
(0.00024075817 -2.7226926e-05 -6.4724242e-25 6.2874374e-05 3.019501e-25 3.3347823e-45)
(0.00021733896 -1.841625e-05 2.077625e-23 4.0840197e-05 -1.47984e-23 6.5925744e-42)