/*--------------------------------*- C++ -*----------------------------------*\
  =========                 |
  \\      /  F ield         | OpenFOAM: The Open Source CFD Toolbox
   \\    /   O peration     | Website:  https://openfoam.org
    \\  /    A nd           | Version:  8
     \\/     M anipulation  |
\*---------------------------------------------------------------------------*/
FoamFile
{
    version     2.0;
    format      ascii;
    class       volScalarField;
    location    "300.966377299864348";
    object      k;
}
// * * * * * * * * * * * * * * * * * * * * * * * * * * * * * * * * * * * * * //

dimensions      [0 2 -2 0 0 0 0];

internalField   nonuniform List<scalar> 
9200
(
0.00015006471
0.00015026391
0.00015005035
0.00015051251
0.00015023408
0.0001499898
0.00015086865
0.00015046489
0.00015016677
0.00014995273
0.00015134168
0.00015080243
0.00015038982
0.00015012505
0.00014992469
0.00015198624
0.00015125951
0.00015071277
0.00015034268
0.00015009367
0.00014991226
0.00015286308
0.00015188413
0.00015114536
0.00015065405
0.00015030897
0.00015007967
0.00014990863
0.00015406671
0.00015273318
0.00015172974
0.00015106482
0.00015061351
0.00015029564
0.0001500751
0.00014990938
0.00015575326
0.00015389759
0.00015251658
0.00015161024
0.00015101045
0.00015059887
0.00015029322
0.00015007459
0.00014990887
0.00015817245
0.00015553189
0.00015359102
0.00015233319
0.00015152938
0.00015099186
0.00015059853
0.00015029436
0.00015007179
0.00014990355
0.00016165658
0.00015787251
0.00015509962
0.00015331136
0.00015220651
0.00015150123
0.0001509947
0.00015060205
0.00015029136
0.00015006305
0.00014989233
0.00016685984
0.00016121299
0.00015727274
0.00015468713
0.00015310768
0.00015216132
0.00015150804
0.00015100407
0.00015059936
0.00015028015
0.00015004776
0.0001498796
0.00017597016
0.00016607768
0.00016036016
0.00015668514
0.00015438054
0.0001530333
0.00015217727
0.00015152774
0.00015100585
0.00015058548
0.00015026055
0.00015002806
0.00014987033
0.00019438708
0.00017421105
0.00016471968
0.00015952881
0.00015624058
0.00015426754
0.00015306734
0.00015221448
0.00015153918
0.00015099252
0.00015056087
0.00015023571
0.00015001248
0.00014986775
0.00022425046
0.00019071441
0.00017140931
0.00016346031
0.00015889441
0.00015605646
0.00015430128
0.00015312564
0.00015224068
0.0001515311
0.0001509645
0.00015053009
0.000150215
0.00015000602
0.00014987382
0.00026091828
0.00021943551
0.00018391488
0.00016901731
0.00016253416
0.00015858239
0.0001560502
0.00015436753
0.00015316604
0.00015224015
0.00015150335
0.00015092854
0.00015050131
0.00015020599
0.0001500111
0.00014988922
0.00029615968
0.00025506498
0.00020687826
0.0001781355
0.00016740816
0.0001620326
0.00015850705
0.00015609275
0.00015440746
0.00015316758
0.00015221347
0.00015146456
0.00015089306
0.00015048674
0.00015021188
0.00015002815
0.00014991348
0.00032524226
0.00029024184
0.00023839974
0.00019514459
0.00017451491
0.00016655454
0.00016184035
0.00015850154
0.00015610739
0.00015439829
0.00015313433
0.00015217191
0.00015142626
0.00015087001
0.00015049143
0.00015023279
0.00015005606
0.00014994547
0.00034816367
0.00032244114
0.00027298416
0.00022071377
0.00018687201
0.00017271691
0.00016620039
0.00016176313
0.00015846444
0.00015606717
0.00015434859
0.00015308224
0.00015212955
0.00015139673
0.00015086971
0.00015051533
0.00015026653
0.00015009266
0.00014998341
0.00036864737
0.00035252362
0.00030917183
0.00025396318
0.00020679295
0.00018246635
0.00017200004
0.00016605405
0.00016165761
0.00015835902
0.00015598031
0.00015427579
0.00015302809
0.00015209775
0.00015138761
0.00015089338
0.00015055491
0.00015030959
0.00015013523
0.0001500251
0.00039088988
0.000382465
0.00034577091
0.00029418053
0.0002375844
0.00019935068
0.00018085738
0.0001717582
0.00016587478
0.00016145416
0.00015819325
0.00015586635
0.00015419757
0.00015298608
0.00015208099
0.00015140547
0.00015093648
0.00015060483
0.00015035797
0.00015018095
0.00015006831
0.00041642864
0.00041299333
0.00038150742
0.00033725914
0.00028277137
0.00022911305
0.00019734856
0.00018066434
0.00017148484
0.00016552735
0.00016115573
0.0001579941
0.00015574536
0.00015412971
0.00015296455
0.00015208775
0.00015144654
0.00015099148
0.00015065928
0.0001504079
0.00015022713
0.00015011093
0.00044196303
0.00044446637
0.00041607057
0.00037696486
0.00033119955
0.00027920964
0.00023020694
0.00019868959
0.00018051963
0.00017087682
0.00016500733
0.00016080535
0.0001577886
0.00015563443
0.00015408116
0.00015296172
0.00015211794
0.00015150113
0.00015105024
0.00015071308
0.00015045613
0.00015027147
0.00015015113
0.00046428202
0.00047604343
0.00045101424
0.00041147432
0.00037205612
0.00033032984
0.00028539891
0.00023723414
0.00020017075
0.00017944093
0.0001699124
0.00016439558
0.00016044841
0.00015759706
0.00015554257
0.00015405345
0.0001529745
0.00015216179
0.00015155817
0.00015110574
0.00015076223
0.00015050019
0.00015031217
0.00015018751
0.00048152187
0.00050505665
0.00048752989
0.0004422783
0.00040287309
0.00036766285
0.00033539377
0.00029614557
0.00024313598
0.00019871598
0.0001772698
0.00016878252
0.00016377887
0.00016011499
0.00015742913
0.00015546864
0.00015404037
0.00015299667
0.00015220579
0.00015160839
0.00015115298
0.00015080411
0.00015053842
0.00015034799
0.00015021913
0.00049289841
0.00052813463
0.00052382861
0.00047161857
0.00042542416
0.00038997378
0.00036572677
0.00034203101
0.00030258231
0.00024103642
0.00019356106
0.00017465168
0.00016768908
0.00016320892
0.00015981725
0.00015728017
0.00015540276
0.00015402869
0.00015301429
0.00015223845
0.00015164583
0.00015118918
0.00015083744
0.00015056998
0.00015037828
0.00015024554
0.00049908009
0.00054438568
0.00055682521
0.00050115101
0.00044290708
0.00040058231
0.00037745305
0.00036449841
0.00034367005
0.00029817847
0.00022968266
0.00018654205
0.00017231232
0.00016673335
0.00016270069
0.000159542
0.00015713304
0.00015533081
0.00015400446
0.00015301482
0.00015225307
0.00015166796
0.00015121356
0.00015086206
0.00015059481
0.00015040293
0.00015026679
0.00050116853
0.0005543243
0.00058500013
0.00053052828
0.00045898042
0.00040538706
0.00037617051
0.00036810483
0.00036007893
0.00033669737
0.00028279547
0.000213093
0.00018014164
0.00017054828
0.00016591624
0.00016223133
0.00015927008
0.00015697316
0.0001552399
0.0001539571
0.00015299161
0.00015224794
0.0001516751
0.00015122698
0.0001508788
0.00015061344
0.00015042228
0.00015028327
0.00050033711
0.00055889084
0.00060766907
0.00055875651
0.00047519895
0.00041013144
0.00037145405
0.00036080354
0.00036106527
0.00035199016
0.00032206051
0.00025881502
0.00019705949
0.00017574842
0.00016925344
0.0001651945
0.0001617786
0.00015898317
0.0001567872
0.00015512018
0.00015388156
0.00015294432
0.00015222538
0.00015166984
0.00015123156
0.00015088904
0.00015062673
0.00015043696
0.00015029567
0.00049757516
0.00055931537
0.00062479278
0.00058475177
0.00049170939
0.00041613325
0.00037028589
0.00035379011
0.00035743573
0.0003552648
0.00034161732
0.00030001488
0.00022962732
0.00018567999
0.00017303551
0.00016824247
0.00016453031
0.00016131923
0.00015866623
0.00015656654
0.00015496789
0.0001537788
0.00015287759
0.00015219053
0.000151656
0.00015122981
0.0001508943
0.00015063572
0.00015044781
0.00015030481
0.00049353291
0.00055678103
0.00063679642
0.0006078529
0.00050802511
0.00042344191
0.00037207102
0.00035412511
0.00035550137
0.00035917598
0.00035032372
0.00032675249
0.00027068087
0.00020545567
0.00017896822
0.00017129629
0.00016739216
0.00016388734
0.00016083529
0.00015831194
0.00015631078
0.00015478735
0.00015365482
0.00015279983
0.00015214958
0.00015163748
0.00015122411
0.00015089612
0.0001506415
0.00015045575
0.00015031154
0.00048841985
0.00055170591
0.00064433209
0.00062743369
0.00052358127
0.00043148147
0.00037609417
0.00035893553
0.00036180877
0.00036813299
0.00036023045
0.00034266132
0.00030367267
0.00023679537
0.00019015174
0.00017525437
0.0001700465
0.00016661764
0.00016323793
0.00016031941
0.00015792376
0.00015602805
0.0001545912
0.00015352166
0.00015272133
0.00015210823
0.00015161762
0.00015121655
0.00015089591
0.00015064514
0.00015046168
0.00015031671
0.00048348039
0.00054398268
0.00064677551
0.00064379255
0.00053791906
0.00043976518
0.00038102706
0.00036558205
0.00037297771
0.00038216831
0.00037644527
0.00035712458
0.00032820063
0.00027180287
0.00020914257
0.0001817825
0.00017310909
0.0001690346
0.00016586099
0.0001625691
0.00015977819
0.00015751492
0.00015573577
0.00015439684
0.00015339615
0.00015265081
0.00015207098
0.00015159909
0.00015120882
0.00015089488
0.00015064761
0.00015046643
0.00015032102
0.00047936502
0.0005355362
0.00064334536
0.0006592906
0.00055119459
0.00044782363
0.00038607048
0.00037204712
0.00038459622
0.00039917895
0.00039828663
0.00037698447
0.00034906551
0.00030263301
0.00023537194
0.00019275706
0.00017756453
0.00017170314
0.00016812615
0.00016508706
0.0001618861
0.0001592289
0.00015710858
0.00015545671
0.00015422126
0.00015329131
0.00015259421
0.00015204075
0.00015158366
0.00015120206
0.00015089395
0.0001506497
0.00015047067
0.00015032509
0.00047666953
0.00052732422
0.00063556307
0.00066940963
0.00056632152
0.00045605419
0.0003908691
0.00037774333
0.00039440709
0.00041565379
0.00042260734
0.00040338117
0.00037155367
0.00033146143
0.00026651983
0.00020947815
0.00018468315
0.00017537537
0.00017062938
0.00016725841
0.00016428787
0.00016120605
0.00015869901
0.00015673206
0.00015521261
0.00015407763
0.00015321416
0.0001525537
0.00015201861
0.00015157203
0.00015119715
0.00015089371
0.00015065197
0.00015047493
0.00015032933
0.00047581394
0.00051996243
0.00062453555
0.00067348374
0.00058006987
0.00046564051
0.00039621417
0.00038284716
0.00040208078
0.00042896171
0.00044539028
0.000433323
0.00039835798
0.00036065004
0.00030106644
0.00023288892
0.00019639645
0.00018126286
0.00017410982
0.00016970557
0.00016640891
0.00016348807
0.00016055812
0.00015821913
0.00015640922
0.00015501859
0.00015397169
0.00015316447
0.00015252772
0.00015200373
0.00015156397
0.00015119416
0.00015089436
0.00015065473
0.00015047956
0.00015033402
0.00047700427
0.0005139128
0.00061112223
0.00067175674
0.0005910051
0.00047614542
0.00040212078
0.0003877577
0.00040792712
0.00043857512
0.00046386589
0.00046288982
0.00042885307
0.00039174359
0.00033853964
0.00026474724
0.00021577665
0.00019212319
0.00018016246
0.00017328723
0.00016885638
0.00016556441
0.00016271729
0.00015997542
0.0001578143
0.0001561555
0.00015487979
0.00015390147
0.00015313389
0.00015251199
0.00015199373
0.00015155839
0.00015119263
0.0001508958
0.00015065805
0.00015048474
0.00015033931
0.00048029584
0.00050933723
0.00059622102
0.00066460085
0.0005981907
0.00048605658
0.00040876031
0.0003933208
0.00041256792
0.0004451642
0.00047725743
0.0004892071
0.00046073957
0.00042423162
0.00037871598
0.00030679219
0.00024700207
0.00021352513
0.00019316387
0.00018034604
0.00017271737
0.00016801118
0.00016472772
0.00016200857
0.00015948499
0.0001574996
0.000155976
0.00015479118
0.00015385959
0.0001531133
0.00015249987
0.00015198542
0.00015155353
0.00015119142
0.00015089769
0.00015066185
0.00015049051
0.0001503452
0.00048566108
0.00050618544
0.00058005864
0.00065277488
0.00060105515
0.00049496089
0.0004156999
0.00039742477
0.00041755515
0.00044962625
0.00048632646
0.00051072277
0.00049168949
0.00045640353
0.00041920981
0.00035740617
0.00029222933
0.00025235925
0.00022203637
0.00019770616
0.00018142292
0.00017214827
0.00016711871
0.0001639228
0.00016139231
0.00015910316
0.00015727894
0.00015586472
0.00015474128
0.00015383597
0.00015309794
0.00015248672
0.00015197505
0.00015154745
0.00015118961
0.0001508995
0.00015066596
0.00015049677
0.00015035159
0.00049282636
0.00050435683
0.00056254378
0.00063646323
0.00059955863
0.00050244345
0.00042332772
0.00040334275
0.00042013303
0.00045249293
0.00049207871
0.00052754897
0.00051986553
0.00048690079
0.00045578077
0.00040731904
0.00034560263
0.0003066641
0.00027540532
0.0002380918
0.00020479248
0.00018246353
0.00017130077
0.00016618049
0.00016318525
0.00016088861
0.00015883361
0.00015714464
0.00015580653
0.0001547163
0.00015382166
0.00015308471
0.00015247332
0.00015196331
0.00015153908
0.00015118615
0.00015090067
0.00015067007
0.00015050335
0.0001503583
0.00050319802
0.00050159207
0.0005451175
0.00061584117
0.00059391581
0.00050808202
0.00043178529
0.00041123597
0.0004253967
0.00045233659
0.00049278941
0.00054125713
0.00054465745
0.00051470674
0.00048758673
0.00044633237
0.00039319541
0.0003558598
0.00033589863
0.00030651777
0.00025797078
0.00021117062
0.00018220544
0.00017006874
0.00016524809
0.00016254789
0.00016050213
0.00015866633
0.0001570784
0.00015578196
0.00015470421
0.00015381064
0.00015307178
0.00015246002
0.00015195165
0.00015153019
0.00015118094
0.0001509006
0.00015067385
0.00015050999
0.0001503651
0.00052450019
0.00050356958
0.00051094781
0.00059211398
0.00058437817
0.00051165162
0.00044101796
0.00042170985
0.00043334961
0.00045410126
0.00048804614
0.00054519148
0.0005695221
0.00053958698
0.00051436342
0.00047670211
0.0004240736
0.00038179765
0.00036440552
0.00035488247
0.00032817193
0.00027274278
0.00021270101
0.00018009693
0.00016858744
0.00016439145
0.00016202797
0.00016022134
0.00015857789
0.00015705485
0.00015577407
0.00015469672
0.00015379982
0.00015305857
0.00015244681
0.00015194017
0.00015152135
0.00015117526
0.00015089883
0.00015067692
0.00015051643
0.00015037172
0.00056688094
0.00050800071
0.00050422534
0.00051986282
0.00057164042
0.00051322538
0.0004509545
0.00043501217
0.00044484778
0.00045816351
0.00048354271
0.00054020631
0.00058596898
0.00056402214
0.00053698439
0.00049997729
0.00044405001
0.00039383905
0.00036850092
0.00036455462
0.00035896791
0.0003330042
0.00027512964
0.0002079679
0.0001766672
0.00016711484
0.00016366053
0.00016162187
0.00016002218
0.00015853296
0.00015705084
0.00015577152
0.00015468917
0.00015378787
0.00015304474
0.00015243338
0.00015192866
0.00015151253
0.00015116953
0.00015089647
0.00015067876
0.00015052233
0.0001503779
0.00055672629
0.00054223223
0.00049366866
0.0005042981
0.000527434
0.00051299526
0.00046160917
0.00045126899
0.00046029709
0.00046520218
0.0004799206
0.00053246408
0.00059093809
0.0005879884
0.00055628022
0.00051777269
0.00045712875
0.00039808679
0.00036438638
0.00035453562
0.00035869385
0.00035211438
0.00032664337
0.0002649339
0.0001987771
0.00017299311
0.00016585041
0.00016306875
0.00016130834
0.00015987398
0.00015849868
0.00015705106
0.00015576781
0.00015467907
0.00015377391
0.00015302974
0.0001524193
0.0001519168
0.00015150359
0.00015116382
0.00015089392
0.00015067936
0.00015052736
0.00015038333
0.00051147925
0.00054091723
0.00051950579
0.00048082684
0.00050322097
0.00053294277
0.00047309771
0.00047055765
0.00047985991
0.00047547999
0.00047760744
0.00052266351
0.00058932652
0.0006057082
0.00057634131
0.00053182292
0.0004651927
0.00039904481
0.00035704806
0.00034185784
0.00034186594
0.00034701159
0.00034085046
0.00031313032
0.00024591628
0.00018841721
0.00016991444
0.00016485856
0.0001625988
0.00016105555
0.00015974639
0.00015845651
0.00015704661
0.00015575903
0.00015466482
0.00015375721
0.00015301306
0.00015240423
0.00015190435
0.00015149434
0.000151158
0.00015089131
0.00015067951
0.00015053117
0.00015038777
0.00048567127
0.00050945045
0.00052532891
0.00049923579
0.00046921494
0.00050061525
0.00053584213
0.00049288413
0.00050336774
0.00048888449
0.00047719664
0.00051105617
0.00058262346
0.00061686925
0.0005944643
0.00054917083
0.00047127097
0.00039740753
0.00035023653
0.00032872572
0.00032200882
0.00032802801
0.00033291567
0.00032874216
0.00029477403
0.00022355458
0.00017969455
0.00016770104
0.00016410533
0.00016221354
0.00016083071
0.00015961678
0.00015839569
0.00015703189
0.00015574263
0.00015464536
0.00015373719
0.00015299431
0.00015238792
0.00015189118
0.00015148469
0.00015115196
0.00015088854
0.0001506794
0.00015053386
0.00015039098
0.00051816123
0.00049994915
0.00050785007
0.00051101768
0.00048170499
0.00045870724
0.00049630113
0.0005357901
0.00053031847
0.00050494218
0.00047871654
0.00049891453
0.00057040459
0.00062165547
0.00060978391
0.00056473351
0.00048382419
0.00039677149
0.00034419409
0.00031960844
0.00030633837
0.00030506085
0.00031346813
0.00032367905
0.00031672328
0.00027218442
0.00020284293
0.00017362127
0.00016622919
0.00016351395
0.00016187366
0.00016061012
0.00015947153
0.00015831074
0.00015700306
0.00015571717
0.00015462014
0.00015371351
0.00015297322
0.00015237025
0.00015187718
0.00015147458
0.00015114563
0.00015088556
0.00015067906
0.000150536
0.00015039319
0.00055967463
0.00054648643
0.00051641845
0.00050711552
0.00049869596
0.00046707296
0.00044926299
0.00049032093
0.00053267968
0.00052285271
0.00048184726
0.00048685705
0.00055430656
0.00061928913
0.00062023143
0.00057772328
0.00049706919
0.00040142357
0.00034068736
0.00031405386
0.00029752332
0.00028811899
0.00029271369
0.00030826821
0.00032006284
0.00030238709
0.00024461215
0.00018716854
0.00016998725
0.00016521988
0.00016301606
0.00016155247
0.00016038036
0.00015930493
0.00015820036
0.00015695768
0.00015568201
0.00015458889
0.000153686
0.00015294974
0.00015235113
0.00015186232
0.00015146396
0.00015113896
0.00015088229
0.00015067842
0.00015053771
0.00015039482
0.00054152509
0.00058974295
0.00057714449
0.00053378461
0.00050722875
0.00048887807
0.00045536603
0.00044088312
0.00048287707
0.000526559
0.00048612122
0.00047493343
0.00053571545
0.00061007773
0.00062467766
0.00058689743
0.00050799173
0.00040910174
0.00033939144
0.00031034056
0.00029329663
0.00027941813
0.00027804541
0.00029183745
0.000312143
0.00031669485
0.00028283996
0.00021500849
0.00017781974
0.00016786533
0.0001644502
0.00016256945
0.00016123548
0.00016013681
0.00015911705
0.00015806635
0.00015689399
0.00015563704
0.00015455161
0.00015365467
0.00015292397
0.00015233055
0.00015184661
0.00015145282
0.00015113191
0.00015087868
0.00015067744
0.00015053899
0.00015039595
0.00049100447
0.00055969008
0.00061840307
0.00060754661
0.00054914447
0.00050872937
0.00048181457
0.00044647635
0.00043354435
0.00047427844
0.00051768465
0.00046326644
0.00051421483
0.0005958737
0.00062227536
0.00059118992
0.0005158158
0.0004160458
0.00034061246
0.00030744098
0.00029064612
0.00027616732
0.0002705605
0.00027927451
0.00030002924
0.0003195108
0.00030785748
0.00025593764
0.00019411571
0.00017269482
0.00016649463
0.00016381093
0.00016215153
0.00016091761
0.00015988078
0.00015891154
0.00015791249
0.00015681021
0.00015558246
0.00015450849
0.0001536197
0.00015289608
0.0001523086
0.00015183009
0.00015144116
0.00015112447
0.00015087469
0.00015067608
0.00015053982
0.00015039656
0.00045220359
0.00049586524
0.00057631316
0.00064341071
0.00062851438
0.0005642541
0.00051186983
0.00047751076
0.00044017877
0.00042715391
0.00046485744
0.00050688954
0.00048984335
0.00057674981
0.00061282014
0.00059000182
0.00052000913
0.00042205463
0.00034237756
0.00030590731
0.00029012102
0.00027640891
0.00026863535
0.0002715398
0.00028888173
0.0003139358
0.00032285758
0.00029021247
0.00022323881
0.00018207621
0.00016980075
0.0001654987
0.00016325086
0.00016175233
0.00016059959
0.00015961667
0.00015869371
0.0001577436
0.00015670477
0.00015551883
0.00015445993
0.0001535814
0.00015286612
0.00015228538
0.00015181282
0.00015142899
0.00015111661
0.00015087032
0.00015067433
0.00015054017
0.00015039662
0.00046448986
0.00044247863
0.00049992739
0.00058995133
0.00066342395
0.00064939961
0.00057879098
0.00051665457
0.00047577126
0.00043604727
0.00042151818
0.00045521322
0.00049551719
0.00055019115
0.0005972404
0.00058286218
0.00052001088
0.00042682784
0.00034478163
0.0003068714
0.00029143428
0.00028016528
0.00027046846
0.00026859862
0.00028021197
0.00030476249
0.00032866914
0.00031587918
0.00026170201
0.00019944237
0.00017564171
0.00016800847
0.00016470097
0.00016274382
0.00016136894
0.00016028471
0.00015934972
0.00015846909
0.0001575647
0.00015658207
0.00015544697
0.00015440644
0.0001535403
0.00015283428
0.00015226107
0.00015179487
0.00015141634
0.00015110838
0.0001508656
0.00015067218
0.00015053982
0.0001503949
0.00051886428
0.00044094636
0.00043415392
0.00050227646
0.00059947728
0.00067776704
0.0006657675
0.00059242222
0.00052275515
0.00047611795
0.0004338577
0.00041627604
0.00044584779
0.00048261823
0.00057591177
0.00056978734
0.00051573745
0.00042976949
0.00034795906
0.00030801122
0.00029565676
0.00028434382
0.00027457248
0.00026949468
0.0002751253
0.00029575943
0.00032601714
0.00033420643
0.00029599781
0.00022701069
0.00018587182
0.00017205116
0.0001667627
0.00016402582
0.00016227709
0.00016100149
0.00015997661
0.00015908466
0.00015824263
0.00015738045
0.00015644804
0.00015536791
0.00015434865
0.00015349673
0.00015280086
0.00015223582
0.00015177632
0.00015140329
0.00015109983
0.00015086052
0.00015066924
0.0001505367
0.00015039242
0.00054945732
0.00048645927
0.00042065676
0.00042665848
0.000502397
0.00060411602
0.0006852925
0.00067765341
0.00060440324
0.00052978696
0.00047821749
0.00043137352
0.00041156814
0.00043593107
0.00046834164
0.00055179507
0.00050745092
0.00043057336
0.00035172533
0.00031067787
0.00029990501
0.00029102395
0.00028006281
0.00027197613
0.00027392463
0.00028886275
0.00031857274
0.00034430922
0.00032384596
0.00026238843
0.00020266693
0.00017873566
0.00016987273
0.0001658072
0.0001634365
0.00016184406
0.00016065076
0.00015967815
0.00015882511
0.00015801824
0.00015719483
0.00015630751
0.00015528271
0.0001542874
0.00015345096
0.00015276614
0.0001522098
0.00015175731
0.00015138994
0.00015109098
0.00015085443
0.00015066077
0.00015053304
0.00015038928
0.00053033797
0.00051979427
0.00045635237
0.00040349859
0.00041966304
0.00050004251
0.00060367463
0.00068616147
0.00068424804
0.000614363
0.00053711614
0.00047882719
0.00042944568
0.00040676325
0.00042557796
0.00045309211
0.0004959439
0.00042931485
0.00035605267
0.00031531465
0.0003060976
0.00029945476
0.00028838148
0.00027595521
0.00027306898
0.00028610814
0.00031041845
0.00034542925
0.00034575669
0.00029780491
0.00022715672
0.00018915475
0.00017474854
0.00016840863
0.00016502614
0.00016291153
0.00016144066
0.00016031717
0.00015939118
0.00015857353
0.00015779877
0.00015701091
0.00015616432
0.00015519247
0.00015422353
0.00015340346
0.00015273043
0.0001521832
0.00015173798
0.00015137633
0.0001510809
0.00015083935
0.0001506519
0.00015052894
0.00015038541
0.00048231711
0.00050726738
0.00048912654
0.00042993803
0.00038935294
0.00041293986
0.00049527612
0.00059822506
0.00068019254
0.00068528005
0.00062169606
0.00054063
0.00047893542
0.00042708986
0.00040139797
0.00041491601
0.00043741049
0.00042636949
0.00036107484
0.00032252284
0.00031494762
0.00031024138
0.00029946754
0.00028319238
0.00027318108
0.00028105669
0.0003071233
0.00034107835
0.00035997977
0.00032752789
0.00025814938
0.00020447679
0.0001822647
0.00017235013
0.00016733115
0.00016436599
0.00016243716
0.00016106371
0.00016000057
0.00015911659
0.00015833141
0.00015758613
0.00015683087
0.00015602133
0.0001550985
0.0001541574
0.00015335466
0.00015269398
0.00015215621
0.00015171841
0.00015136122
0.0001510567
0.00015082419
0.00015064294
0.00015052428
0.00015038084
0.00042246347
0.00046786118
0.00048383298
0.00046000059
0.00040782707
0.00037789871
0.00040639732
0.00048837317
0.00058828579
0.00066759968
0.00067984513
0.00062146533
0.0005408527
0.0004776492
0.00042348435
0.00039508965
0.00040424623
0.00042217054
0.00036698906
0.00033276195
0.00032741271
0.00032429045
0.00031326261
0.00029400908
0.00027642057
0.00027601136
0.00029791366
0.00033847382
0.00036817115
0.0003515719
0.00029227392
0.00022529949
0.00019258199
0.00017837317
0.00017078198
0.00016648306
0.00016379389
0.00016200369
0.00016071045
0.00015970038
0.00015885467
0.00015809951
0.0001573815
0.00015665616
0.00015588055
0.00015500234
0.00015408961
0.00015330493
0.00015265706
0.00015212902
0.00015169706
0.00015132532
0.00015103287
0.00015080939
0.00015063375
0.00015051904
0.00015037554
0.00037405931
0.00041875698
0.00045332549
0.00046139475
0.00043436151
0.00039001181
0.00036885284
0.00040007997
0.00047990303
0.0005749456
0.0006491705
0.00066452561
0.00061342612
0.00053810495
0.00047373645
0.00041765822
0.00038756631
0.00039418234
0.00040835255
0.00034622807
0.00034394838
0.00034230712
0.00033004348
0.00030780283
0.00028387521
0.00027308256
0.00028833518
0.00032574335
0.00037391306
0.00037130507
0.00032363126
0.00025122263
0.00020597469
0.00018688867
0.00017605948
0.00016967606
0.00016578481
0.00016328725
0.00016160384
0.00016037847
0.00015941582
0.00015860528
0.00015787811
0.00015718549
0.00015648767
0.00015574341
0.00015490459
0.0001540207
0.00015325464
0.00015261998
0.00015209972
0.00015164577
0.00015129045
0.00015101003
0.00015079477
0.00015062432
0.00015051312
0.00015036949
0.00036281083
0.00038267938
0.0004156272
0.00043978434
0.00044104381
0.00041317101
0.00037622703
0.00036191475
0.000394107
0.00047029997
0.00055959051
0.00062680502
0.00064437085
0.00060129777
0.00053095604
0.00046576369
0.00040862085
0.00037926044
0.00038577588
0.00039637289
0.00036448592
0.00036430909
0.00034998389
0.00032481414
0.00029445534
0.00027468207
0.00027893011
0.00031210225
0.00036535559
0.00038938524
0.00035047442
0.00028108299
0.00022355613
0.00019641715
0.00018376695
0.00017460186
0.00016884383
0.00016519138
0.00016283005
0.00016123203
0.00016006563
0.00015914599
0.0001583681
0.00015766721
0.00015699839
0.00015632588
0.00015561089
0.00015480592
0.00015395124
0.00015320429
0.00015258042
0.00015202826
0.00015159645
0.00015125741
0.00015098795
0.00015078034
0.00015061455
0.00015050648
0.00015036267
0.00038837218
0.00038217512
0.00039223068
0.00041349652
0.00042789926
0.00042354154
0.00039652756
0.00036600644
0.00035671178
0.00038834496
0.0004600173
0.00054425341
0.00060785609
0.00062142047
0.0005833266
0.00051767573
0.00045245283
0.00039641384
0.00037155886
0.0003796745
0.00038500904
0.0003894378
0.00037308972
0.00034495471
0.00030837531
0.00027927526
0.00027368464
0.00029759699
0.00034966964
0.00039759858
0.00037583114
0.00031300596
0.00024529275
0.00020812793
0.00019186898
0.00018187718
0.00017362943
0.00016817981
0.00016467124
0.00016241058
0.00016088394
0.00015977013
0.00015889006
0.00015814268
0.00015746661
0.00015682019
0.00015617125
0.00015548305
0.00015470721
0.00015388198
0.00015315108
0.00015248268
0.00015196016
0.00015155017
0.00015122591
0.00015096667
0.00015076596
0.0001506044
0.00015049906
0.00015035508
0.00041599518
0.00041411763
0.00040207522
0.00040219704
0.00041253007
0.0004181178
0.00040927845
0.00038398146
0.00035869613
0.00035254547
0.00038239612
0.00045147615
0.00053347282
0.00058652979
0.00059363048
0.00055845537
0.00049716862
0.00043370513
0.00038248071
0.00036661935
0.00037517853
0.00037044821
0.00039853056
0.00036791174
0.0003254476
0.00028723322
0.00027080385
0.00028638456
0.00033088424
0.00039333015
0.00039995094
0.00034429725
0.00027154291
0.00022387806
0.00020053416
0.00018928432
0.00018069417
0.00017292642
0.00016761787
0.00016420095
0.00016202019
0.00016055618
0.00015949047
0.00015864722
0.00015792855
0.00015727598
0.00015665074
0.00015602374
0.00015536002
0.00015460955
0.00015380978
0.00015302071
0.00015239014
0.00015189676
0.00015150652
0.000151196
0.00015094602
0.00015075159
0.00015059381
0.00015049085
0.00015034672
0.00042481414
0.0004412721
0.00043829504
0.00042052456
0.00041206258
0.00041260128
0.00041045778
0.00039814149
0.00037473335
0.00035281337
0.00034948265
0.00037800369
0.00044640108
0.00052183129
0.00056256264
0.00056102063
0.00052658786
0.00046944478
0.00041188128
0.00037137591
0.00036486962
0.00036795267
0.00034815116
0.00039297044
0.00034548456
0.00029835769
0.00027101904
0.0002763854
0.00031426242
0.00037819749
0.00041475241
0.00037859707
0.00030239295
0.00024408909
0.00021178089
0.00019646153
0.00018746698
0.00017978058
0.00017235563
0.00016711242
0.0001637633
0.00016165246
0.00016024611
0.00015922535
0.00015841673
0.00015772519
0.00015709493
0.00015649
0.00015588305
0.00015524189
0.00015450997
0.00015364461
0.00015289756
0.00015230459
0.00015183754
0.00015146553
0.00015116746
0.00015092594
0.00015073714
0.00015058274
0.00015048181
0.00015033751
0.00041940001
0.00045002745
0.00046250659
0.00045738036
0.00043613621
0.00042112629
0.00041331062
0.00040465506
0.00038951463
0.00036762632
0.00034949682
0.00034526734
0.00037507607
0.000442089
0.00050861509
0.00053597126
0.00052438353
0.00048868057
0.00043761173
0.00039121232
0.00036617107
0.00036314581
0.00035053814
0.00031598416
0.00036801902
0.0003123833
0.00027428783
0.00026853339
0.00029885513
0.000357866
0.00041849414
0.00040528608
0.00034515274
0.00026962602
0.00022845604
0.00020529318
0.00019359343
0.00018586017
0.00017885046
0.00017182397
0.00016663029
0.00016334577
0.0001613026
0.00015995168
0.00015897371
0.00015819791
0.00015753209
0.00015692324
0.00015633732
0.00015574897
0.00015512586
0.00015431979
0.00015348766
0.00015278402
0.00015222529
0.00015178242
0.00015142694
0.00015114021
0.00015090633
0.00015072257
0.00015057117
0.00015047186
0.00015032743
0.00039205424
0.00044592046
0.00047288513
0.00047816364
0.0004693401
0.00044809209
0.00042861637
0.00041401854
0.00039985622
0.00038284296
0.00036292708
0.0003436639
0.00034125528
0.00037388461
0.00043730201
0.0004937552
0.00050693554
0.00048494358
0.00044788222
0.00040680625
0.00037509538
0.00036244929
0.00035103416
0.00032045033
0.00027635434
0.00032880853
0.00028030776
0.00026335337
0.00028462991
0.00033610896
0.00040866008
0.00042498174
0.00038001043
0.00030804871
0.0002504262
0.00021884972
0.00020091328
0.00019099488
0.00018416627
0.0001777627
0.00017126551
0.00016614727
0.00016293947
0.00016096717
0.00015967127
0.00015873461
0.00015799011
0.00015734883
0.00015676027
0.00015619225
0.00015561882
0.0001549317
0.00015413685
0.00015334211
0.00015267922
0.00015215205
0.00015173105
0.00015139058
0.00015111412
0.00015088714
0.0001507078
0.00015055888
0.00015046105
0.00015031648
0.00034684278
0.00041636089
0.00047110099
0.0004923601
0.00048893876
0.00047567323
0.00045588318
0.000433479
0.00041358257
0.00039598467
0.00037777961
0.00035495603
0.00033799437
0.000338509
0.00037296336
0.00043267609
0.00047681208
0.00047524537
0.00044445126
0.00040913825
0.0003798474
0.00036159455
0.00035106092
0.0003244718
0.00027987096
0.00023706856
0.00028858934