/*--------------------------------*- C++ -*----------------------------------*\
  =========                 |
  \\      /  F ield         | OpenFOAM: The Open Source CFD Toolbox
   \\    /   O peration     | Website:  https://openfoam.org
    \\  /    A nd           | Version:  8
     \\/     M anipulation  |
\*---------------------------------------------------------------------------*/
FoamFile
{
    version     2.0;
    format      ascii;
    class       volScalarField;
    location    "300.966377299864348";
    object      k_0;
}
// * * * * * * * * * * * * * * * * * * * * * * * * * * * * * * * * * * * * * //

dimensions      [0 2 -2 0 0 0 0];

internalField   nonuniform List<scalar> 
9200
(
0.00015006573
0.00015026498
0.00015005143
0.0001505137
0.00015023525
0.0001499904
0.00015086996
0.00015046629
0.00015016742
0.00014995245
0.0001513428
0.0001508043
0.00015039067
0.0001501247
0.00014992344
0.00015198698
0.00015126228
0.00015071421
0.00015034236
0.00015009222
0.00014991029
0.00015286303
0.00015188843
0.00015114819
0.00015065407
0.0001503073
0.00015007743
0.00014990647
0.00015406594
0.00015273986
0.00015173525
0.00015106589
0.00015061175
0.00015029301
0.0001500727
0.00014990765
0.00015575188
0.00015390751
0.00015252655
0.00015161361
0.00015100896
0.00015059577
0.00015029042
0.00015007274
0.00014990809
0.00015816996
0.00015554569
0.00015360745
0.00015234072
0.00015152885
0.00015098825
0.0001505951
0.00015029226
0.00015007104
0.00014990399
0.00016165265
0.00015789173
0.00015512415
0.00015332564
0.00015220803
0.00015149714
0.0001509903
0.00015059943
0.00015029062
0.00015006366
0.00014989395
0.00016684989
0.00016123867
0.00015730604
0.00015470997
0.00015311391
0.00015215641
0.00015150214
0.00015100036
0.00015059835
0.000150281
0.00015004965
0.00014988195
0.00017593578
0.00016611351
0.00016040339
0.00015671778
0.00015439217
0.00015302765
0.00015216894
0.00015152213
0.00015100395
0.00015058635
0.00015026282
0.00015003079
0.00014987284
0.00019432852
0.00017426743
0.00016477862
0.00015957107
0.00015625814
0.00015426175
0.00015305577
0.00015220599
0.00015153544
0.00015099285
0.00015056335
0.00015023888
0.00015001528
0.0001498699
0.00022425916
0.00019086163
0.00017151299
0.00016351483
0.00015891642
0.00015605062
0.00015428691
0.00015311339
0.00015223413
0.00015152988
0.00015096673
0.00015053357
0.00015021807
0.00015000828
0.00014987524
0.00026107833
0.00021981392
0.00018417147
0.00016910436
0.00016256133
0.00015857771
0.00015603326
0.00015435125
0.00015315595
0.00015223646
0.00015150439
0.00015093185
0.00015050464
0.00015020821
0.0001500124
0.0001498897
0.0002964608
0.00025573774
0.00020743748
0.00017833591
0.00016744586
0.00016202606
0.00015848499
0.00015607208
0.00015439339
0.00015316092
0.00015221243
0.00015146695
0.00015089654
0.00015048893
0.00015021279
0.00015002831
0.00014991296
0.00032545396
0.00029105435
0.00023930812
0.00019560148
0.00017459553
0.0001665427
0.00016181069
0.00015847438
0.00015608852
0.00015438787
0.00015313071
0.00015217261
0.00015142895
0.0001508723
0.00015049194
0.00015023229
0.0001500551
0.00014994404
0.00034792456
0.00032302561
0.00027397188
0.00022151007
0.0001870821
0.00017270217
0.0001661543
0.00016172482
0.00015843922
0.00015605212
0.00015434154
0.00015308075
0.00015213091
0.00015139899
0.00015087003
0.00015051411
0.00015026477
0.00015009076
0.00014998127
0.0003676651
0.00035253001
0.00030978006
0.00025475316
0.00020712278
0.00018243484
0.00017191901
0.00016599473
0.00016162218
0.00015833893
0.00015596921
0.00015427154
0.00015302755
0.00015209892
0.00015138812
0.00015089167
0.0001505523
0.00015030692
0.0001501327
0.00015002252
0.00038906106
0.00038184313
0.00034580927
0.00029447438
0.00023777348
0.00019916222
0.00018065444
0.00017165152
0.00016582225
0.00016142773
0.00015817865
0.00015585881
0.00015419513
0.00015298549
0.00015208165
0.00015140381
0.0001509332
0.00015060139
0.00015035485
0.00015017812
0.0001500656
0.00041391755
0.00041187048
0.00038122248
0.00033707521
0.00028224669
0.00022830736
0.00019673758
0.00018037476
0.00017139304
0.0001654932
0.00016113895
0.00015798433
0.00015574055
0.00015412803
0.00015296343
0.00015208675
0.00015144324
0.00015098744
0.00015065566
0.00015040479
0.00015022437
0.0001501084
0.00043891025
0.00044303455
0.00041579029
0.00037669765
0.00033056243
0.00027754941
0.00022856452
0.00019782163
0.00018026006
0.0001708262
0.00016499211
0.0001607962
0.00015778265
0.00015563138
0.00015407966
0.00015296076
0.00015211556
0.00015149727
0.00015104636
0.0001507099
0.00015045345
0.00015026911
0.00015014907
0.00046080833
0.00047426867
0.00045093407
0.00041155751
0.00037188728
0.00032913397
0.00028305659
0.00023517352
0.00019940041
0.000179306
0.00016990368
0.0001643935
0.00016044464
0.00015759387
0.00015554085
0.00015405194
0.00015297332
0.00015215925
0.00015155496
0.00015110282
0.00015075999
0.00015049828
0.00015031048
0.00015018615
0.00047776602
0.00050288211
0.00048768821
0.00044312332
0.00040359036
0.00036748459
0.00033392917
0.00029397536
0.00024152681
0.00019834257
0.0001772684
0.00016879887
0.00016378424
0.00016011486
0.00015742817
0.00015546862
0.00015403974
0.00015299621
0.00015220461
0.00015160687
0.00015115163
0.00015080316
0.00015053753
0.00015034717
0.00015021862
0.00048898683
0.00052549202
0.00052405779
0.00047352321
0.00042730636
0.00039112181
0.00036554514
0.00034095043
0.00030140366
0.00024045555
0.00019361588
0.000174719
0.00016771393
0.00016321792
0.00015982013
0.00015728245
0.00015540558
0.0001540304
0.00015301623
0.0001522399
0.00015164667
0.00015118976
0.00015083794
0.00015057023
0.00015037843
0.00015024594
0.00049513121
0.00054121386
0.00055680332
0.00050414411
0.00044603809
0.00040314943
0.0003785586
0.00036462572
0.00034349274
0.00029826156
0.00023009384
0.00018681802
0.00017238318
0.00016675753
0.00016271281
0.00015954956
0.00015714001
0.00015533776
0.00015401005
0.00015302059
0.00015225788
0.00015167145
0.00015121613
0.00015086399
0.00015059619
0.00015040405
0.00015026808
0.00049729341
0.000550628
0.00058442549
0.00053446279
0.00046329163
0.00040910601
0.00037835295
0.00036895858
0.00036067013
0.00033742053
0.0002839133
0.00021401875
0.00018040954
0.00017059556
0.00016594009
0.00016224799
0.00015928375
0.00015698622
0.00015525238
0.00015396782
0.00015300193
0.00015225623
0.00015168113
0.00015123135
0.00015088202
0.00015061584
0.0001504243
0.00015028537
0.00049662774
0.00055473266
0.00060632547
0.00056338148
0.000480588
0.00041465542
0.0003740916
0.00036171123
0.00036167261
0.00035281358
0.00032345416
0.00026064153
0.00019795038
0.00017590577
0.00016928359
0.00016521899
0.00016180127
0.00015900446
0.00015680758
0.00015513913
0.00015389798
0.00015295909
0.00015223667
0.00015167789
0.00015123732
0.00015089329
0.00015062999
0.00015043974
0.00015029843
0.00049410787
0.0005547889
0.00062255424
0.00058980178
0.00049806651
0.00042125833
0.0003730169
0.00035437918
0.00035723294
0.00035550526
0.00034261709
0.00030208374
0.00023172109
0.00018623724
0.00017311371
0.00016826258
0.00016455735
0.00016134942
0.00015869613
0.00015659476
0.00015499341
0.00015380057
0.00015289589
0.00015220386
0.00015166539
0.00015123652
0.00015089928
0.00015063962
0.00015045117
0.00015030804
0.00049037336
0.00055199146
0.00063363921
0.00061309034
0.00051522338
0.00042903313
0.00037474637
0.00035415087
0.00035396341
0.00035833716
0.00035052727
0.00032828377
0.00027329615
0.0002069312
0.0001792513
0.00017133044
0.0001674081
0.00016391914
0.00016087378
0.00015835032
0.0001563461
0.0001548181
0.00015368063
0.00015281989
0.00015216378
0.00015164746
0.0001512313
0.0001509015
0.00015064581
0.00015045948
0.00015031506
0.00048565178
0.00054680237
0.00064026232
0.00063264887
0.00053149291
0.00043750236
0.00037864398
0.00035821129
0.00035922365
0.00036600523
0.00035953898
0.00034329183
0.00030602694
0.00023956739
0.00019098238
0.00017537438
0.00017006079
0.00016663437
0.00016327578
0.00016036545
0.00015796882
0.00015606819
0.00015462422
0.00015354845
0.00015274109
0.00015212213
0.00015162747
0.00015122375
0.00015090136
0.00015064961
0.00015046558
0.00015032031
0.00048114369
0.00053912349
0.00064174689
0.00064885936
0.00054640932
0.00044618689
0.00038354853
0.0003643308
0.0003696754
0.00037893489
0.00037477627
0.00035693153
0.00032973223
0.00027491198
0.00021095439
0.00018214992
0.00017314681
0.00016904235
0.00016588239
0.0001626124
0.00015982905
0.00015756329
0.00015577674
0.00015442845
0.00015342052
0.0001526684
0.00015208354
0.00015160817
0.0001512156
0.0001509001
0.00015065199
0.00015047028
0.00015032454
0.00047745038
0.00053089689
0.00063751447
0.00066381699
0.00056010102
0.00045462572
0.00038865468
0.00037050422
0.00038081875
0.00039508167
0.00039554303
0.0003761478
0.00034959815
0.00030529699
0.000238274
0.00019362685
0.00017767524
0.00017170247
0.00016813416
0.00016511586
0.00016193191
0.00015928037
0.00015715515
0.00015549371
0.00015424785
0.00015331049
0.00015260825
0.0001520512
0.00015159147
0.0001512081
0.00015089868
0.00015065378
0.0001504743
0.00015032835
0.00047517129
0.00052306176
0.00062920846
0.00067307265
0.00057569141
0.00046318308
0.00039352861
0.00037604049
0.00039034165
0.0004109548
0.00041884237
0.00040193637
0.00037128398
0.00033319977
0.00026998005
0.00021100051
0.00018492599
0.00017535579
0.00017061084
0.00016726918
0.0001643221
0.00016125014
0.00015874532
0.00015677137
0.00015524139
0.00015409672
0.00015322665
0.00015256353
0.00015202654
0.0001515783
0.00015120216
0.00015089774
0.00015065557
0.00015047818
0.00015033221
0.00047471661
0.00051622136
0.00061793837
0.00067618036
0.00058968525
0.00047320194
0.0003989741
0.00038105801
0.00039790825
0.00042391696
0.00044076479
0.00043110599
0.00039755133
0.00036120535
0.00030400244
0.00023488481
0.00019669963
0.00018113693
0.00017401582
0.00016967714
0.00016642241
0.00016352303
0.00016059457
0.00015825451
0.00015643683
0.00015503649
0.00015398252
0.00015317057
0.00015253364
0.00015200917
0.0001515686
0.00015119804
0.00015089758
0.00015065771
0.00015048232
0.00015033643
0.00047629015
0.00051082421
0.00060455963
0.00067352137
0.00060060711
0.00048404941
0.00040502564
0.00038600232
0.0004037801
0.00043339035
0.00045853031
0.00045987036
0.00042767703
0.00039113369
0.00033994482
0.00026662004
0.00021567169
0.00019151169
0.00017977913
0.00017313593
0.00016882118
0.00016558146
0.00016274765
0.00015999848
0.00015783438
0.00015616875
0.00015488625
0.00015390482
0.00015313609
0.00015251476
0.00015199709
0.00015156154
0.00015119537
0.00015089817
0.00015066035
0.00015048692
0.00015034118
0.00047996699
0.00050701941
0.00058993427
0.00066552752
0.00060749852
0.00049419077
0.00041193739
0.0003915823
0.00040851457
0.00043998766
0.00047137104
0.00048527362
0.00045925641
0.00042269516
0.00037866996
0.00030772276
0.00024558229
0.00021145008
0.00019176529
0.00017971909
0.00017251263
0.00016797987
0.00016474654
0.00016202885
0.00015949034
0.00015750193
0.00015597432
0.00015478742
0.00015385692
0.00015311281
0.00015250109
0.00015198728
0.0001515555
0.00015119318
0.00015089925
0.00015066345
0.00015049207
0.00015034648
0.00048572872
0.00050473548
0.00057431997
0.0006530089
0.00060981359
0.00050315046
0.00041906444
0.00039585087
0.00041366738
0.0004446178
0.00048004635
0.00050582681
0.00048984648
0.00045436949
0.00041788594
0.00035696599
0.00028896023
0.00024744257
0.00021807156
0.0001955052
0.00018054252
0.00017193541
0.00016709976
0.00016393914
0.00016139804
0.00015908845
0.00015726318
0.00015584972
0.00015472959
0.00015382892
0.00015309509
0.00015248664
0.00015197615
0.0001515487
0.00015119059
0.00015090033
0.00015066688
0.0001504977
0.00015035229
0.0004933184
0.00050384184
0.00055763427
0.00063611732
0.00060756951
0.00051046853
0.0004267475
0.00040176268
0.00041646547
0.00044790596
0.00048554426
0.00052171282
0.00051755306
0.0004846847
0.00045393006
0.00040615548
0.00034163772
0.0002994369
0.00026755163
0.00023238492
0.00020182562
0.00018152551
0.00017113506
0.00016617577
0.00016319379
0.00016087745
0.00015879886
0.00015711274
0.00015578134
0.00015469915
0.0001538116
0.00015307991
0.0001524717
0.00015196324
0.00015153956
0.00015118664
0.0001509009
0.00015067037
0.00015050367
0.00015035843
0.00050365368
0.00050249478
0.00054120078
0.00061499926
0.00060101211
0.00051571306
0.00043508572
0.0004095436
0.00042194447
0.00044826046
0.00048649451
0.00053434378
0.00054176721
0.00051252317
0.00048567228
0.00044594093
0.00039183556
0.00035098221
0.00032857961
0.00029767522
0.0002512422
0.00020818828
0.00018146819
0.00016998215
0.00016525168
0.00016254426
0.00016047453
0.0001586143
0.00015703427
0.00015575018
0.00015468357
0.00015379844
0.00015306528
0.00015245692
0.00015195037
0.00015152975
0.00015118082
0.00015090041
0.0001506736
0.00015050975
0.00015036471
0.00052161554
0.00050493194
0.00051232831
0.00059082466
0.0005903964
0.00051867733
0.00044398768
0.00041976413
0.00043008098
0.0004506534
0.00048227762
0.00053759539
0.0005658283
0.00053756781
0.0005126759
0.00047750579
0.00042573953
0.00038170684
0.00036235014
0.00035104131
0.00032278595
0.00026699237
0.00021050707
0.00017970803
0.0001685705
0.00016439393
0.00016201059
0.00016018042
0.0001585142
0.00015700345
0.00015573855
0.00015467388
0.00015378594
0.00015305054
0.00015244234
0.00015193776
0.00015152002
0.00015117448
0.00015089823
0.00015067623
0.00015051568
0.00015037087
0.00056524297
0.00050615784
0.00050641509
0.00052175721
0.00057647094
0.00051944073
0.00045335936
0.00043265013
0.00044172588
0.00045539342
0.00047862108
0.00053235516
0.00058079399
0.0005626271
0.00053570875
0.00050202734
0.00044839097
0.00039737561
0.00037019835
0.00036446196
0.00035810728
0.00033072325
0.00027157901
0.00020689987
0.00017658786
0.000167133
0.00016365477
0.00016159243
0.00015997292
0.00015846635
0.00015699618
0.00015573407
0.00015466486
0.0001537726
0.00015303537
0.00015242774
0.00015192527
0.0001515104
0.0001511681
0.00015089538
0.00015067777
0.00015052117
0.00015037666
0.00056032061
0.00054046399
0.00049276215
0.00050722781
0.00052986988
0.00051820805
0.00046320939
0.0004483165
0.00045729498
0.00046320393
0.00047604966
0.00052473069
0.00058426778
0.00058648849
0.00055560535
0.00052105991
0.00046361476
0.00040427318
0.00036836066
0.00035691691
0.00036013403
0.00035288657
0.00032617471
0.00026351938
0.00019864721
0.00017307903
0.00016587193
0.00016305261
0.00016127104
0.00015982226
0.00015843507
0.00015699573
0.00015572954
0.00015465381
0.00015375756
0.00015301929
0.00015241268
0.00015191257
0.00015150076
0.0001511618
0.00015089234
0.00015067803
0.00015052588
0.00015038179
0.00051553205
0.00054327282
0.00051775251
0.00048070712
0.00050678084
0.00053593226
0.00047366048
0.00046684748
0.00047696545
0.00047433679
0.00047498833
0.00051537599
0.00058155276
0.0006033849
0.00057609759
0.00053618682
0.00047345276
0.00040697793
0.00036245292
0.00034559665
0.00034458955
0.00034971756
0.00034226333
0.00031367639
0.00024612775
0.00018878334
0.00017003425
0.00016486778
0.0001625744
0.00016101616
0.00015969733
0.00015839886
0.00015699224
0.00015572075
0.00015463903
0.00015374006
0.00015300176
0.00015239681
0.0001518994
0.0001514909
0.00015115546
0.00015088929
0.00015067782
0.00015052948
0.00015038601
0.00048498236
0.00051219828
0.00052653201
0.00049752919
0.00046970904
0.00050467911
0.00053937052
0.00048827438
0.00050060269
0.00048873652
0.00047598901
0.00050459379
0.00057404953
0.00061348927
0.00059452404
0.00055396344
0.00048081681
0.0004065015
0.00035636135
0.00033310667
0.00032580405
0.00033189276
0.00033565082
0.00033002858
0.00029591719
0.00022470779
0.00018016139
0.00016778827
0.00016410024
0.00016218641
0.00016079423
0.00015957389
0.00015834573
0.00015697973
0.00015570498
0.00015461943
0.00015371954
0.00015298237
0.00015237986
0.00015188563
0.00015148072
0.00015114897
0.00015088614
0.00015067738
0.00015053192
0.0001503891
0.00051255912
0.00049781054
0.00050918583
0.00051118488
0.00048001718
0.00045963323
0.0005007225
0.00053981376
0.00052776599
0.00050597232
0.00047904411
0.00049359602
0.00056136044
0.00061713711
0.00060986918
0.00056975735
0.0004944594
0.00040657459
0.0003504366
0.00032382202
0.00031018879
0.00030893301
0.0003165577
0.00032513729
0.00031772589
0.0002739244
0.00020423592
0.000173974
0.00016627082
0.00016350181
0.00016184859
0.00016057971
0.00015943662
0.00015826925
0.00015695416
0.00015568062
0.00015459436
0.00015369559
0.00015296085
0.00015236169
0.00015187114
0.00015147017
0.00015114225
0.00015088282
0.00015067675
0.00015053383
0.00015039114
0.0005575065
0.00053991518
0.0005126418
0.00050702252
0.00049795171
0.00046534676
0.00045044252
0.00049494392
0.00053712474
0.00052524316
0.00048379769
0.00048292173
0.00054517661
0.00061356329
0.00062015762
0.0005830321
0.00050830949
0.00041237646
0.00034696733
0.0003177122
0.00030093406
0.00029122577
0.00029488168
0.00030927256
0.00032037048
0.00030354518
0.00024723644
0.00018825955
0.0001701763
0.00016523625
0.00016300282
0.00016153224
0.00016035734
0.00015927841
0.0001581673
0.00015691297
0.00015564693
0.00015456353
0.00015366801
0.00015293708
0.00015234219
0.00015185589
0.00015145918
0.00015113526
0.00015087928
0.00015067588
0.00015053534
0.00015039263
0.00054541537
0.00058822947
0.00056983998
0.00052839357
0.00050581333
0.000487329
0.00045353389
0.00044213999
0.00048754555
0.00053131903
0.00048973082
0.00047261023
0.00052670348
0.00060335043
0.00062430508
0.00059241102
0.00051960551
0.00042102281
0.0003461449
0.0003136488
0.00029623149
0.00028172031
0.00027906243
0.00029185844
0.00031155498
0.00031673053
0.00028470364
0.00021751497
0.00017843805
0.00016796102
0.00016445582
0.00016255836
0.00016122101
0.00016012103
0.00015909835
0.00015804105
0.00015685449
0.00015560372
0.00015452687
0.00015363679
0.00015291115
0.00015232133
0.00015183987
0.00015144774
0.00015112794
0.00015087545
0.0001506747
0.00015053646
0.00015039366
0.00049623863
0.00056514556
0.00061776256
0.00059982447
0.00054257729
0.00050609922
0.00047955137
0.00044447214
0.00043472976
0.00047884554
0.00052261112
0.0004627413
0.00050576188
0.00058867568
0.000621453
0.0005967803
0.00052755797
0.00042868024
0.00034810238
0.00031047498
0.00029299721
0.00027769468
0.00027075534
0.00027844239
0.0002986034
0.00031823219
0.00030851543
0.00025908026
0.00019575879
0.00017302148
0.00016654431
0.00016381244
0.00016214371
0.0001609085
0.00015987121
0.00015889947
0.0001578939
0.00015677712
0.00015555112
0.00015448455
0.00015360207
0.00015288322
0.00015229919
0.00015182311
0.00015143584
0.00015112029
0.00015087128
0.00015067319
0.00015053718
0.00015039422
0.00045351327
0.00050260215
0.00058325525
0.00064363266
0.00062071703
0.00055669681
0.00050814713
0.00047460613
0.00043794431
0.00042814784
0.0004692023
0.00051186684
0.00048255547
0.00056886739
0.00061157979
0.00059552468
0.00053158395
0.00043504862
0.00035038649
0.00030881387
0.00029148541
0.00027703588
0.00026825481
0.00027024162
0.00028683135
0.00031150904
0.00032202891
0.0002921798
0.00022651634
0.00018296792
0.00016997196
0.00016552621
0.00016325114
0.00016174759
0.00016059477
0.00015961193
0.00015868685
0.0001577305
0.00015667892
0.00015548959
0.0001544369
0.00015356409
0.00015285329
0.00015227586
0.00015180566
0.00015142349
0.00015111227
0.00015086677
0.00015067134
0.00015053745
0.00015039424
0.00045871485
0.00044547535
0.00050799352
0.00059825339
0.00066439389
0.00064150594
0.00057046201
0.00051198626
0.00047229666
0.00043353872
0.00042221916
0.00045924536
0.00050046773
0.00054199303
0.00059575746
0.0005881912
0.00053113823
0.0004398065
0.00035321302
0.00030935397
0.00029212151
0.00028011265
0.0002697033
0.0002670749
0.00027776805
0.00030166412
0.00032617576
0.00031647177
0.00026560692
0.00020153301
0.00017611985
0.00016810065
0.00016471693
0.00016274376
0.00016136652
0.00016028294
0.00015934841
0.00015846606
0.00015755584
0.00015656203
0.00015541989
0.0001543844
0.00015352337
0.00015282156
0.00015225149
0.00015178759
0.00015141071
0.00015110391
0.00015086195
0.00015066913
0.00015053706
0.00015039254
0.00051062858
0.00043670881
0.00043858872
0.00051147813
0.00060893233
0.00067971388
0.0006582788
0.00058359765
0.00051731005
0.0004721262
0.00043103871
0.00041670775
0.00044958428
0.00048744389
0.00057406366
0.00057476503
0.0005261352
0.00044235619
0.00035660564
0.00031025989
0.00029577751
0.00028390837
0.00027365719
0.00026786106
0.00027252201
0.00029228164
0.00032210592
0.00033319932
0.00029865998
0.00023079632
0.00018697944
0.00017230326
0.00016681324
0.00016403436
0.00016227671
0.00016100052
0.00015997679
0.00015908558
0.0001582422
0.00015737467
0.00015643234
0.00015534295
0.00015432763
0.00015348024
0.00015278827
0.00015222624
0.00015176897
0.00015139756
0.00015109528
0.00015085682
0.00015066615
0.00015053395
0.0001503901
0.00054707271
0.00047871718
0.00041781791
0.00043223796
0.00051252043
0.00061444352
0.0006882142
0.00067091626
0.00059541442
0.00052373513
0.00047377256
0.00042827292
0.00041171946
0.00043936912
0.00047293082
0.0005561677
0.00051683696
0.00044243684
0.00036026748
0.00031262754
0.00029923053
0.00029012156
0.00027900788
0.00027047399
0.00027125218
0.00028520463
0.00031389608
0.00034138586
0.00032519401
0.0002672785
0.00020499593
0.00017932705
0.00017000421
0.00016583369
0.00016343968
0.00016184315
0.00016065054
0.00015967945
0.00015882735
0.00015801943
0.00015719113
0.00015629489
0.00015525979
0.00015426734
0.00015343494
0.00015275375
0.00015220026
0.00015174993
0.00015138416
0.00015108639
0.00015085071
0.0001506577
0.00015053033
0.00015038704
0.00053380922
0.00051677184
0.0004494914
0.00040185059
0.00042606846
0.00051085544
0.0006145452
0.00069006113
0.00067855282
0.00060553122
0.00053063499
0.00047398232
0.00042609301
0.00040664573
0.00042871868
0.00045735327
0.00050410134
0.0004401148
0.00036408791
0.00031682858
0.00030453419
0.00029790504
0.00028716461
0.00027469785
0.00027070901
0.00028216611
0.00030550007
0.00034070302
0.00034560473
0.00030160379
0.00023110546
0.00019032068
0.00017505097
0.00016847223
0.00016503644
0.00016291051
0.00016143904
0.00016031722
0.00015939301
0.00015857642
0.00015780082
0.00015700851
0.00015615376
0.00015517147
0.00015420443
0.00015338791
0.00015271824
0.00015217372
0.00015173059
0.00015137053
0.0001510763
0.00015083567
0.00015064889
0.0001505263
0.00015038328
0.00048904963
0.00050963789
0.00048562956
0.00042406702
0.00038865361
0.00041985741
0.00050648338
0.00060931092
0.00068503913
0.00068091449
0.00061334984
0.00053396804
0.00047385664
0.00042352825
0.00040104351
0.00041774308
0.00044127712
0.00043575728
0.00036816849
0.00032336463
0.00031236455
0.00030796218
0.00029794008
0.00028219339
0.00027134901
0.00027742544
0.00030182517
0.00033491741
0.00035791965
0.00033032915
0.00026360122
0.00020672814
0.00018285833
0.00017249019
0.00016735311
0.00016436431
0.00016243278
0.00016106132
0.0001600006
0.00015911857
0.00015833448
0.0001575885
0.00015682917
0.00015601208
0.00015507919
0.00015413925
0.0001533396
0.00015268201
0.00015214683
0.00015171105
0.00015135544
0.00015105218
0.00015082058
0.00015064
0.00015052174
0.00015037883
0.0004301226
0.00047318955
0.00048499398
0.00045632333
0.00040291153
0.00037790763
0.00041353551
0.00049965807
0.00059927759
0.00067325109
0.00067710905
0.00061393306
0.00053436131
0.00047243397
0.00041979515
0.00039458438
0.00040679925
0.000425575
0.00037272307
0.00033265007
0.00032367656
0.0003212095
0.00031128427
0.0002932117
0.00027526529
0.00027291306
0.00029280557
0.00033158533
0.00036385757
0.00035294606
0.00029809655
0.00022895272
0.00019359323
0.00017864176
0.00017082449
0.00016647692
0.00016378323
0.00016199663
0.00016070734
0.00015970022
0.00015885655
0.00015810244
0.00015738378
0.00015665474
0.00015587207
0.00015498457
0.00015407235
0.00015329033
0.00015264531
0.00015211974
0.00015168976
0.00015131968
0.00015102846
0.00015080588
0.00015063092
0.00015051663
0.00015037368
0.00037808163
0.000424489
0.00045721718
0.00046143652
0.00043062961
0.00038591775
0.0003693429
0.00040718819
0.000490979
0.00058559294
0.0006551953
0.0006632408
0.00060691616
0.00053194412
0.00046850323
0.00041396701
0.00038705424
0.00039651748
0.00041123315
0.0003448705
0.00033897952
0.00033844407
0.0003276049
0.00030721246
0.00028339734
0.00027083303
0.00028351098
0.00031859978
0.00036765185
0.00037114896
0.00032798803
0.00025639521
0.00020785326
0.00018730631
0.000176131
0.00016965552
0.00016575822
0.00016326988
0.0001615947
0.0001603747
0.00015941537
0.00015860689
0.00015788069
0.00015718743
0.00015648621
0.00015573526
0.00015488819
0.00015400425
0.00015324046
0.00015260846
0.00015209057
0.00015163871
0.00015128496
0.00015100574
0.00015079139
0.00015062163
0.00015051087
0.00015036781
0.00035996772
0.00038474982
0.00041937231
0.00044222057
0.00044017148
0.00040944925
0.00037279794
0.0003626882
0.0004009964
0.00048097299
0.00056970255
0.00063253297
0.00064365528
0.00059578645
0.00052526113
0.0004606781
0.00040511129
0.00037891974
0.00038793
0.00039866384
0.00035828818
0.00035972977
0.00034733273
0.0003244431
0.00029471898
0.00027337544
0.00027473848
0.00030542429
0.00035719169
0.00038756053
0.0003537586
0.00028735591
0.00022650167
0.00019717355
0.00018387862
0.00017454661
0.00016877988
0.00016514973
0.00016280778
0.00016122135
0.00016006131
0.00015914522
0.00015836933
0.00015766929
0.00015699978
0.00015632418
0.00015560289
0.00015479067
0.00015393548
0.00015319051
0.00015256915
0.00015201947
0.00015158963
0.0001512521
0.00015098382
0.00015077711
0.00015061202
0.00015050441
0.00015036118
0.00038106777
0.00037772136
0.00039229527
0.00041531166
0.00042892563
0.0004219487
0.00039283476
0.00036308639
0.00035761643
0.00039488786
0.00047019232
0.00055356177
0.00061293194
0.00062118507
0.00057886336
0.00051257605
0.00044770355
0.00039334594
0.0003715533
0.00038161548
0.000386641
0.00038430506
0.00037036635
0.00034482841
0.00030942206
0.0002790599
0.00027034788
0.00029109336
0.00034065097
0.0003925444
0.00037806541
0.00031921649
0.00024941888
0.00020949024
0.00019213897
0.00018178841
0.00017348984
0.00016808513
0.00016461894
0.00016238492
0.00016087218
0.00015976536
0.00015888893
0.00015814346
0.00015746809
0.00015682092
0.00015616907
0.00015547506
0.00015469285
0.00015386685
0.00015313772
0.00015247191
0.00015195171
0.00015154358
0.00015122079
0.00015096271
0.00015076291
0.00015060206
0.0001504972
0.00015035379
0.00041062659
0.00040608297
0.00039613739
0.00040038501
0.00041253871
0.00041777667
0.00040705931
0.00038033033
0.00035614881
0.00035351578
0.00038853741
0.00046100726
0.00054207047
0.00059086472
0.00059369391
0.00055498673
0.00049276309
0.00042953362
0.00038016514
0.00036695867
0.00037673781
0.0003713595
0.00039583646
0.00036801212
0.00032729877
0.00028820343
0.00026862584
0.00028042544
0.00032180431
0.00038500445
0.0003999807
0.000349083
0.00027674821
0.00022590264
0.00020104739
0.00018933683
0.00018049571
0.00017273203
0.00016750206
0.0001641417
0.00016199244
0.00016054373
0.00015948534
0.0001586457
0.00015792881
0.0001572768
0.00015665072
0.00015602105
0.00015535193
0.00015459588
0.00015379524
0.00015300791
0.00015237984
0.00015188865
0.00015150018
0.00015119108
0.00015094226
0.00015074874
0.00015059167
0.00015048921
0.00015034564
0.00042210655
0.00043604182
0.00043000927
0.00041349958
0.00040861457
0.00041099106
0.00040886246
0.00039538556
0.00037111729
0.00035051994
0.00035030878
0.00038391542
0.0004555595
0.0005295004
0.00056595004
0.00056111999
0.00052396706
0.00046583158
0.00040848717
0.00037005007
0.00036550614
0.00036878828
0.00034845045
0.00039323254
0.00034817383
0.00030059098
0.00027019299
0.00027122361
0.00030587679
0.00036755974
0.00041180578
0.00038168876
0.00030825192
0.00024672946
0.000212546
0.00019665598
0.0001874297
0.00017956881
0.00017212949
0.00016698374
0.00016370034
0.00016162372
0.00016023333
0.00015921994
0.00015841482
0.0001577249
0.00015709506
0.00015648919
0.00015587979
0.00015523362
0.00015449683
0.00015363042
0.00015288531
0.00015229473
0.00015182975
0.00015145945
0.00015116278
0.00015092239
0.00015073451
0.00015058084
0.00015048041
0.00015033666
0.00041975325
0.00044708271
0.00045747963
0.00044938435
0.00042863162
0.00041636953
0.00041032101
0.00040200908
0.00038634926
0.00036401895
0.00034738392
0.00034630203
0.00038101691
0.00045075432
0.00051520329
0.00053827536
0.00052424379
0.0004866959
0.00043493644
0.00038880142
0.00036559551
0.00036357499
0.00035068457
0.00031588601
0.00037155207
0.00031595217
0.00027494862
0.00026451563
0.00029061408
0.00034671332
0.00041159892
0.00040664494
0.00035003186
0.00027291289
0.00022932597
0.000205489
0.00019369763
0.00018581959
0.00017868325
0.00017158552
0.0001664963
0.00016328192
0.00016127384
0.00015993884
0.00015896807
0.00015819558
0.00015753124
0.00015692259
0.00015633577
0.00015574511
0.00015511733
0.00015430635
0.00015347387
0.00015277231
0.00015221585
0.00015177496
0.00015142113
0.00015113577
0.00015090303
0.00015072017
0.0001505695
0.0001504707
0.00015032679
0.00039643973
0.00044627383
0.00046939865
0.00047307156
0.00046213984
0.00044058645
0.00042293968
0.00040994894
0.00039643604
0.00037932367
0.00035932747
0.00034184481
0.00034256572
0.00037981911
0.00044532063
0.00049905722
0.00050808577
0.00048437741
0.00044640925
0.00040513573
0.00037400838
0.00036245135
0.00035098812
0.00032005013
0.00027613512
0.00033377122
0.00028255707
0.00026074822
0.0002770601
0.00032565164
0.00039820842
0.00042425312
0.00038342515
0.00031268097
0.00025149864
0.00021878015
0.00020094662
0.00019112158
0.00018418283
0.00017766536
0.00017103309
0.00016601494
0.0001628772
0.00016093918
0.00015965862
0.0001587288
0.00015798737
0.00015734735
0.00015675893
0.00015618998
0.00015561433
0.00015492219
0.00015412321
0.00015332877
0.00015266803
0.00015214304
0.00015172392
0.00015138505
0.00015110994
0.00015088408
0.00015070566
0.00015055745
0.00015046013
0.00015031606
0.00035320391
0.00042156565
0.0004713946
0.00048815497
0.00048323741
0.00046925336
0.00044873792
0.00042733494
0.00040880487
0.00039199353
0.00037402552
0.00035154697
0.00033637737
0.00034029007
0.00037882242
0.00043979381
0.00048063449
0.00047529511
0.00044350629
0.00040822442
0.00037914906
0.00036159557
0.00035118226
0.00032387851
0.00027916575
0.00023695213
0.00029250294
0.00025979152