/*--------------------------------*- C++ -*----------------------------------*\
  =========                 |
  \\      /  F ield         | OpenFOAM: The Open Source CFD Toolbox
   \\    /   O peration     | Website:  https://openfoam.org
    \\  /    A nd           | Version:  8
     \\/     M anipulation  |
\*---------------------------------------------------------------------------*/
FoamFile
{
    version     2.0;
    format      ascii;
    class       volScalarField;
    location    "300.966377299864348";
    object      nut;
}
// * * * * * * * * * * * * * * * * * * * * * * * * * * * * * * * * * * * * * //

dimensions      [0 2 -1 0 0 0 0];

internalField   nonuniform List<scalar> 
9200
(
0.031746882
0.026983537
0.020938277
0.024273233
0.019771517
0.025256376
0.021336823
0.019312614
0.023616305
0.024646998
0.019170797
0.018211296
0.023370279
0.0232032
0.026273717
0.016887658
0.016815993
0.022491211
0.023147648
0.024697045
0.026777364
0.014454264
0.014957568
0.021639955
0.02267535
0.024789883
0.025151827
0.027788646
0.012424183
0.012870973
0.020435807
0.022633919
0.024527712
0.025182867
0.026015702
0.028897179
0.010960767
0.010792665
0.018869053
0.022921456
0.024989903
0.024831948
0.025871125
0.026983563
0.030495646
0.0093531574
0.0088544725
0.016805413
0.023775618
0.026492624
0.025177827
0.025162875
0.026653555
0.028438196
0.032722614
0.0077638764
0.0073918754
0.01425475
0.02468023
0.030469668
0.02648779
0.024940807
0.025532535
0.027940144
0.030557221
0.033324106
0.0065648046
0.0059769777
0.011152755
0.024238892
0.032283046
0.02983175
0.025109065
0.024552193
0.026421996
0.029944508
0.033302506
0.033320657
0.0066193625
0.004828179
0.0081419583
0.019183038
0.031602572
0.032295173
0.025667867
0.023407246
0.02461204
0.028122693
0.032937631
0.033298648
0.033318081
0.010717802
0.0041561693
0.0058951047
0.012175579
0.030477709
0.031641437
0.025842831
0.021759918
0.022356024
0.025621189
0.030933666
0.033267148
0.033295707
0.033316558
0.0078956379
0.0057553355
0.0046019834
0.0076894419
0.018043957
0.028645528
0.022680964
0.019142354
0.019428377
0.02239188
0.028008516
0.033212427
0.033264771
0.033294064
0.033316072
0.0049328943
0.0085735566
0.0050085224
0.0052459438
0.009032817
0.014679185
0.015872461
0.015281454
0.015909591
0.018708693
0.023959184
0.032011244
0.033211047
0.033263885
0.033293686
0.033316457
0.0031373368
0.0054606054
0.0087536274
0.0044707318
0.0055461698
0.0082703085
0.010122544
0.011270552
0.012484344
0.014915551
0.019494011
0.027323754
0.03312509
0.033211119
0.033264405
0.033294323
0.03331746
0.0021461979
0.0035065248
0.0065923871
0.0059350875
0.0040979089
0.0051917748
0.0065890038
0.0078095694
0.0093804953
0.011559264
0.015206444
0.021858695
0.032923851
0.033126643
0.033212548
0.033265954
0.033295614
0.033318819
0.0016194862
0.0024089815
0.00435525
0.0080933544
0.0042811683
0.0037088455
0.0044527415
0.0053799052
0.0067055337
0.0086397137
0.011494178
0.016629285
0.026213929
0.032994611
0.033128912
0.033214803
0.033268017
0.033297176
0.033320281
0.0013469309
0.0018209217
0.0030154979
0.00556611
0.0064742461
0.0034589909
0.0032315534
0.0037791208
0.0047392326
0.0062561857
0.0084895343
0.012221317
0.019460269
0.032789203
0.032997039
0.033131337
0.033217205
0.033270084
0.033298676
0.033321638
0.001213999
0.0015113312
0.0022541284
0.0038946029
0.0065400634
0.0048333915
0.0029693265
0.0028059481
0.003387361
0.0044856585
0.0061699705
0.0088418899
0.013844379
0.024081076
0.032791982
0.032997958
0.033133172
0.033219132
0.033271753
0.033299873
0.033322751
0.0011579988
0.0013512975
0.0018208767
0.0028575115
0.0045553929
0.0066546691
0.0043422498
0.0026351945
0.0025439375
0.0032416917
0.0044584555
0.0063599879
0.0097074763
0.016331702
0.031305082
0.032788589
0.032996983
0.033133798
0.033220156
0.033272779
0.033300632
0.033323552
0.0011405403
0.0012734498
0.0015725301
0.0022173197
0.0032190715
0.0044413608
0.0060412722
0.0042602087
0.0024179605
0.0024378104
0.0032471705
0.0045823337
0.0068214773
0.011000766
0.01964758
0.032450039
0.032781004
0.032993813
0.033132902
0.033220103
0.033273083
0.033300922
0.033324033
0.0011404033
0.0012410378
0.0014336434
0.0018238787
0.002371241
0.0029701015
0.0038055333
0.005239435
0.0042645982
0.0022568716
0.0024284491
0.0033356043
0.0048422669
0.0075014077
0.012559146
0.023433387
0.032434013
0.032770202
0.032988534
0.033130528
0.033219043
0.033272731
0.033300798
0.033324236
0.0011465098
0.0012318186
0.0013616578
0.0015852752
0.0018556024
0.0020789919
0.0024237156
0.0031568001
0.0046869463
0.0039812119
0.0021022451
0.0024736846
0.0034934646
0.0052121618
0.0082804207
0.014136134
0.026469968
0.032413043
0.03275726
0.032981677
0.033127035
0.033217229
0.033271885
0.033300368
0.033324233
0.0011530848
0.0012316731
0.0013287579
0.0014444556
0.0015472141
0.0015664197
0.0016410035
0.0019530227
0.0027485479
0.0045848058
0.00324288
0.0019892299
0.0025712979
0.0037056086
0.0056217216
0.0090151219
0.01539298
0.027503711
0.032390674
0.032743555
0.032974116
0.033122985
0.033215019
0.033270766
0.033299772
0.033324115
0.0011580535
0.0012339808
0.0013165495
0.0013654432
0.0013641178
0.001273431
0.0012135586
0.0013072019
0.001680217
0.0026672802
0.0050057508
0.0024150349
0.0019750111
0.0026981322
0.0039294326
0.0059898321
0.0095921431
0.016081538
0.027228021
0.03236972
0.032730671
0.032966871
0.033119005
0.033212805
0.033269614
0.033299158
0.033323976
0.001160873
0.0012358134
0.0013148136
0.0013243015
0.0012567582
0.0011066164
0.00097890463
0.00096904786
0.0011273517
0.0016287922
0.0029403443
0.0055543305
0.001882863
0.0020251485
0.0028227074
0.0041182378
0.0062685343
0.0099647383
0.016339432
0.027148805
0.032352552
0.032720149
0.032960912
0.033115693
0.033210955
0.03326865
0.033298657
0.033323895
0.0011617212
0.0012358475
0.0013175684
0.0013057742
0.0011955986
0.0010131271
0.00085326994
0.00079169986
0.0008493009
0.0010973679
0.0018055958
0.0036378429
0.0030717363
0.0016749097
0.0020837574
0.0029177548
0.0042492591
0.0064512022
0.010177768
0.016599122
0.028181719
0.032341134
0.03271327
0.03295704
0.033113543
0.03320976
0.033268044
0.033298371
0.033323937
0.0011609741
0.0012338313
0.0013214169
0.0013001414
0.001162816
0.00096209446
0.00079051596
0.00070502952
0.0007146343
0.0008349826
0.001216644
0.0022691153
0.0048168654
0.0019264183
0.0016137495
0.0021235236
0.0029710237
0.004325569
0.0065650375
0.010375398
0.017240253
0.03081609
0.032337019
0.032710917
0.032955796
0.033112877
0.0332094
0.033267905
0.033298366
0.033324139
0.0011589527
0.0012299649
0.0013245912
0.0013015084
0.001147315
0.00093627157
0.00076174491
0.00067175807
0.00065633445
0.00071544148
0.00092038059
0.001528232
0.0031152443
0.0034620116
0.0014705767
0.0015932855
0.0021348442
0.002989232
0.0043677249
0.006669896
0.010712269
0.018442447
0.031788199
0.032341095
0.032713485
0.032957397
0.03311382
0.033209952
0.033268279
0.033298668
0.033324519
0.0011559819
0.001223885
0.0013262854
0.0013059524
0.0011421806
0.00092541498
0.00075201532
0.00066556334
0.00064360571
0.00067146581
0.00078171634
0.001137174
0.0021170522
0.0043326682
0.0019061719
0.0012840004
0.0015727347
0.0021229584
0.0029897216
0.0044087885
0.0068315474
0.011237071
0.020125525
0.031808837
0.032353235
0.032720873
0.032961768
0.033116331
0.033211396
0.033269158
0.033299272
0.033325071
0.0011532418
0.0012149899
0.0013245731
0.0013118573
0.0011430804
0.00092351677
0.00075250603
0.00067244298
0.00065345198
0.00066726428
0.00072791521
0.00093778534
0.001558454
0.0030397861
0.003243093
0.0012608367
0.0012061113
0.0015427927
0.0021014612
0.0029928317
0.0044781372
0.0070564112
0.011838501
0.021785556
0.031840341
0.032372719
0.032732582
0.032968606
0.033120236
0.033213638
0.033270492
0.033300146
0.033325773
0.0011514214
0.001205213
0.0013174545
0.0013206904
0.0011479222
0.00092680966
0.00075830738
0.00068470995
0.0006720316
0.00068259044
0.00071860038
0.0008450011
0.0012499206
0.0022539398
0.0042113002
0.001660748
0.0010285797
0.0011535306
0.0015084901
0.002083886
0.0030154076
0.0045724486
0.0072715361
0.012276204
0.022472357
0.031881819
0.032398322
0.032747815
0.032977435
0.033125259
0.033216524
0.033272198
0.033301237
0.033326593
0.0011511998
0.0011955055
0.0013061194
0.0013254361
0.0011600841
0.00093383106
0.00076672948
0.00069877112
0.00069245085
0.00070512801
0.00073079937
0.00081074091
0.001082351
0.0017899053
0.0031945516
0.0027355995
0.0010977957
0.00091689581
0.0011082762
0.0014799718
0.0020825689
0.0030548012
0.0046546358
0.0073854112
0.012347108
0.021505045
0.031931016
0.032428383
0.032765543
0.03298765
0.03313108
0.033219862
0.033274168
0.03330248
0.033327491
0.0011530606
0.0011864967
0.0012913319
0.0013249351
0.0011724405
0.00094681612
0.00077728444
0.00071320539
0.00071199043
0.00072800694
0.00075097227
0.00080657009
0.00099472155
0.0015128367
0.0025420969
0.0040531784
0.0015250592
0.00087846868
0.00084729031
0.0010739293
0.0014674055
0.0020986856
0.0030908346
0.0046909089
0.0073633598
0.011984243
0.019389263
0.030153887
0.032460934
0.03278458
0.032998567
0.033137312
0.033223432
0.033276279
0.033303804
0.033328423
0.001157213
0.0011786949
0.0012736654
0.0013190644
0.0011827803
0.0009625116
0.00079048293
0.0007275635
0.00072975327
0.0007485165
0.00077178467
0.00081597699
0.00095189283
0.0013436236
0.0021140129
0.0031718759
0.0026482915
0.0011910843
0.00076782716
0.00080276689
0.0010563439
0.0014732384
0.0021202938
0.0031094169
0.0046756557
0.0072147764
0.011228114
0.017084529
0.024922393
0.032484504
0.032803659
0.033009464
0.033143546
0.033227007
0.033278404
0.033305139
0.033329346
0.0011636593
0.0011722624
0.0012538446
0.0013078123
0.0011896891
0.00097841463
0.00080601853
0.00074271416
0.0007458014
0.00076615816
0.00079007386
0.00082993975
0.0009333209
0.0012366819
0.0018231791
0.0025319092
0.0031517262
0.0023210465
0.0011368661
0.0007120951
0.00078150104
0.0010579211
0.0014902955
0.0021368366
0.0031103496
0.00461572
0.0069291218
0.010275657
0.014979569
0.020808166
0.02655142
0.031196886
0.033019601
0.033149348
0.033230363
0.033280421
0.033306415
0.033330215
0.0011722779
0.0011671043
0.0012319017
0.0012915902
0.0011922088
0.00099367532
0.00082252514
0.00075734508
0.00076157774
0.00078122737
0.0008052101
0.00084377912
0.0009272526
0.0011659872
0.0016194024
0.0020830899
0.0023242179
0.0025786915
0.0028409947
0.0012496641
0.00069609844
0.00078153274
0.0010730512
0.0015093141
0.002146964
0.0030939813
0.004504791
0.0065281598
0.0093399773
0.013142603
0.017644883
0.02227911
0.026484368
0.030160218
0.033154329
0.03323329
0.033282222
0.033307567
0.033330988
0.0011825956
0.0011630695
0.0012075474
0.001270194
0.0011900037
0.0010074696
0.00084020543
0.00077420749
0.00077536573
0.00079407508
0.00081739383
0.00085580941
0.00092690514
0.0011174972
0.0014699174
0.0017693048
0.0017845054
0.0017743446
0.001971459
0.0024848768
0.0015298444
0.00070022713
0.00079571595
0.0010932973
0.0015264801
0.0021508055
0.0030551164
0.0043347578
0.006091694
0.0085124152
0.011651297
0.015314025
0.019205589
0.02297304
0.026474866
0.030420221
0.0332356
0.033283707
0.033308537
0.033331629
0.0011592718
0.0011942439
0.0011824079
0.0012434239
0.0011830274
0.0010190046
0.00085898848
0.00079344236
0.00079206573
0.00080442419
0.0008247715
0.00086631607
0.00092885697
0.001082895
0.0013591553
0.0015417218
0.0014445433
0.0012899771
0.0012971119
0.0015117316
0.0019902347
0.0018617671
0.00069264625
0.0008161157
0.0011141022
0.0015400341
0.0021449169
0.0029865306
0.0041292141
0.0056939251
0.0078198626
0.01049474
0.013592085
0.016935422
0.020317443
0.023631852
0.02735883
0.031829724
0.033284796
0.033309275
0.033332101
0.0011524521
0.0011567993
0.0012058293
0.001212286
0.0011712804
0.0010277691
0.00087856837
0.00081562955
0.0008116569
0.00081678207
0.00082762718
0.0008685482
0.00093417473
0.0010574
0.0012756134
0.0013807946
0.0012194335
0.000996315
0.00089634563
0.00095014229
0.0011716242
0.0016864714
0.0019124843
0.00066957482
0.00083737201
0.0011330103
0.0015483665
0.0021228545
0.0028940543
0.0039338111
0.0053630159
0.0072518672
0.0095734801
0.012251584
0.015179167
0.018249048
0.021443805
0.025019313
0.029166022
0.033285412
0.033309739
0.033332376
0.0011783758
0.0011266593
0.0011540273
0.0012159821
0.0011552943
0.0010336418
0.0008986546
0.00084088649
0.00083497452
0.00083142769
0.0008308891
0.00086450316
0.00092988373
0.0010400707
0.0012121337
0.0012654983
0.0010715956
0.00082314483
0.0006748501
0.00064213175
0.0007202607
0.00096657934
0.0015688432
0.0015526972
0.00066186921
0.00085700184
0.0011484732
0.0015488872
0.002085023
0.0028003202
0.0037733396
0.0050862709
0.0067695722
0.0088089047
0.011167269
0.013781318
0.016602714
0.01966358
0.023188958
0.027062619
0.031916641
0.033309893
0.033332427
0.0011360318
0.0011440765
0.0011028079
0.0011498235
0.0012235938
0.001036689
0.00091907887
0.00086921218
0.00086234817
0.00084896942
0.00083486077
0.00085908563
0.00092074305
0.001019106
0.0011638008
0.0011815975
0.00097232272
0.00071793793
0.00055544402
0.00048478791
0.00049455414
0.00059586517
0.00088928644
0.0016208037
0.0010369171
0.00067316127
0.00087422715
0.0011585861
0.0015394216
0.0020435087
0.0027235021
0.0036392928
0.004838912
0.0063475943
0.0081668883
0.010280785
0.012653225
0.015281396
0.018195324
0.021613467
0.025387446
0.029811178
0.033309705
0.033332233
0.0010373992
0.001114897
0.001111002
0.0010801393
0.0011434935
0.0012278752
0.00093981627
0.00090051137
0.00089380117
0.00086959263
0.00083973186
0.00085210013
0.00090982278
0.00099920041
0.0011268307
0.0011212499
0.00090336158
0.00065192643
0.00048801749
0.00040704681
0.00038431321
0.0004206129
0.00055272558
0.00091947373
0.001853085
0.00068014547
0.00068663556
0.00088809827
0.0011623323
0.0015247018
0.0020096311
0.0026607888
0.0035157686
0.004612953
0.005980953
0.007628125
0.0095498567
0.011733776
0.014208404
0.016999693
0.020276018
0.023933193
0.028087145
0.032123889
0.033331778
0.00096101815
0.0010366704
0.0010930793
0.001079957
0.0010584101
0.0011346299
0.0012283257
0.00093457943
0.00092896534
0.00089307364
0.00084593034
0.00084310533
0.00089690189
0.00098051942
0.0010924935
0.0011005293
0.0008568128
0.0006080398
0.00044869552
0.00036619321
0.00033112235
0.0003368866
0.00039477499
0.00057333459
0.0010601983
0.0020828755
0.00057317508
0.00069890963
0.00089815122
0.001162804
0.0015138873
0.0019830195
0.0026012686
0.0033986315
0.0044109484
0.0056649726
0.0071733268
0.0089434255
0.010981371
0.013324345
0.016006989
0.019158709
0.022677434
0.026644163
0.030296944
0.032044472
0.00097109243
0.0009832956
0.0010355085
0.0010718969
0.0010514782
0.0010375631
0.0011231308
0.0012247585
0.00096711344
0.00091880016
0.00085336037
0.00083279582
0.0008803412
0.00096195976
0.0010616534
0.0010784894
0.00085632049
0.00058041483
0.00042477042
0.0003454914
0.00030639573
0.00029609472
0.00031901439
0.00040812527
0.00065962138
0.0013419628
0.00090315712
0.00057054773
0.00071046274
0.00090577443
0.0011642317
0.001506658
0.0019569247
0.0025421821
0.0032906959
0.004232229
0.0053923338
0.0067876831
0.0084372445
0.010359055
0.01259088
0.015169053
0.018205198
0.02159584
0.02537161
0.028763269
0.030398803
0.0010070114
0.0010099125
0.001007038
0.0010344957
0.0010523334
0.0010259655
0.0010176782
0.0011092344
0.0012173252
0.00094583443
0.00086157691
0.00082144026
0.00086056727
0.00094151185
0.0010325395
0.0010549871
0.00085903585
0.00058088721
0.00041110667
0.00033585642
0.00029740502
0.00027867605
0.00028257846
0.00032695977
0.00046342404
0.00083297126
0.0018099233
0.00053120735
0.0005777586
0.00072068815
0.00091270559
0.0011659067
0.0014974242
0.0019292267
0.002486288
0.0031931605
0.0040746231
0.0051566017
0.0064605901
0.0080117213
0.0098369647
0.011976428
0.014460428
0.017386489
0.020644019
0.024256372
0.027449741
0.028994414
0.00097298343
0.0010468845
0.0010501019
0.0010307257
0.0010337219
0.0010351613
0.0010036548
0.00099893836
0.0010934355
0.001206403
0.00086997468
0.0008088822
0.00083807562
0.00091817784
0.0010038258
0.0010297817
0.00085976313
0.00058936422
0.00040910104
0.00033185216
0.00029664644
0.00027495705
0.0002675964
0.00028693844
0.00036326735
0.0005744399
0.0011361561
0.0010570262
0.00048899503
0.00058666718
0.00072970479
0.00091862904
0.0011654313
0.0014864845
0.0019022192
0.002434846
0.0031050909
0.0039357519
0.0049534231
0.0061841994
0.0076567314
0.0093984711
0.011456522
0.013855537
0.016676846
0.019809002
0.023281316
0.026298569
0.027755165
0.00087786819
0.00099894817
0.0010848039
0.0010889343
0.0010512364
0.0010339135
0.0010208419
0.0009846066
0.00098150889
0.0010764114
0.0011926622
0.0007951151
0.00081202841
0.00089238623
0.00097413541
0.0010025718
0.00085742999
0.00059936873
0.00041462179
0.00033188142
0.00029947032
0.0002786618
0.00026518663
0.00026876789
0.00031018798
0.00043828324
0.00077087079
0.0016121789
0.00051215095
0.00049196538
0.00059561958
0.00073734788
0.00092268571
0.0011635288
0.0014756598
0.0018771715
0.0023876419
0.0030261275
0.0038141699
0.00477912
0.0059499316
0.007357249
0.009028927
0.011015064
0.013334337
0.016059014
0.019092717
0.022451324
0.025285654
0.026624297
0.00078041127
0.00088448999
0.0010229628
0.0011188039
0.0011176188
0.0010706634
0.0010354586
0.0010095302
0.00096871513
0.00096548598
0.0010588967
0.0011775858
0.0007821563
0.00086336148
0.00094249356
0.00097320607
0.00085138422
0.0006098399
0.00042245138
0.00033706119
0.00030505904
0.00028646893
0.0002702368
0.0002630487
0.00028246288
0.0003613004
0.0005724884
0.0010968982
0.001025432
0.0004311214
0.00049791037
0.00060335002
0.00074334077
0.00092545431
0.0011614395
0.0014655461
0.0018541344
0.0023449196
0.002956119
0.0037086647
0.0046298923
0.0057499229
0.0071008778
0.0087158757
0.010638039
0.012884499
0.015536172
0.018501121
0.021716631
0.02429019
0.025581751
0.00075004031
0.0007655282
0.00088927377
0.0010436487
0.0011479896
0.0011457937
0.0010888208
0.0010384685
0.0010011215
0.00095560384
0.00095082136
0.0010421142
0.0011638978
0.00082842161
0.00090883071
0.00094135753
0.00084101994
0.00061975188
0.0004322612
0.00034457947
0.0003134632
0.00029731723
0.00027964117
0.00026515409
0.00026901973
0.00031608235
0.00045761039
0.00079846778
0.0015597156
0.00048236618
0.00042906456
0.00050410895
0.00060960448
0.00074807849
0.00092775467
0.0011596019
0.001456534
0.0018334936
0.0023070178
0.0028951055
0.0036177683
0.0045024085
0.0055803335
0.0068851127
0.0084505929
0.010314656
0.012506196
0.015111227
0.01797172
0.020920587
0.023374965
0.024613575
0.00078931244
0.00071836819
0.00075082095
0.00089118769
0.001060114
0.0011721858
0.0011695128
0.0011056187
0.0010426997
0.00099516801
0.00094511622
0.00093759691
0.0010275212
0.0011509328
0.00087265862
0.00090689525
0.0008262345
0.00062787192
0.00044369209
0.00035298394
0.0003240729
0.00030961704
0.00029146925
0.00027222918
0.0002645509
0.00028964083
0.00038562839
0.00062232152
0.0011439754
0.00087145276
0.00038751814
0.00043155662
0.00050943786
0.00061462353
0.00075215626
0.00093005827
0.0011584191
0.0014489665
0.0018157686
0.0022741829
0.0028425468
0.0035396067
0.0043934134
0.0054369641
0.0067040521
0.0082243689
0.010042691
0.012199592
0.01472945
0.017332756
0.02023587
0.022638582
0.023752434
0.00083379164
0.00074885282
0.00068888023
0.0007357858
0.0008898379
0.001071851
0.0011907874
0.0011893782
0.0011206417
0.0010478956
0.00099138471
0.00093500444
0.00092590093
0.0010140958
0.0011402718
0.00087037689
0.0008072893
0.00063325445
0.00045619246
0.00036302862
0.00033495622
0.00032405451
0.00030631354
0.00028187665
0.00026617847
0.00027491795
0.00033861641
0.00051135091
0.00088201062
0.0015746053
0.00043786579
0.00038047649
0.00043461576
0.00051371464
0.00061891253
0.00075610793
0.00093282457
0.0011582998
0.0014432395
0.0018011669
0.0022463464
0.0027972967
0.0034725583
0.0043024047
0.0053177573
0.0065506397
0.0080328433
0.0098207671
0.011926549
0.014232102
0.01684833
0.019773625
0.021942462
0.022927827
0.00083263726
0.00079317014
0.00071003158
0.0006617765
0.00072033549
0.00088518596
0.0010789233
0.0012044514
0.0012052527
0.0011339799
0.0010535823
0.00098634404
0.00092560492
0.00091488907
0.0010031536
0.0011347183
0.00078491202
0.00063539798
0.00046925948
0.00037499128
0.00034720502
0.0003398367
0.00032429469
0.00029561018
0.00027057012
0.00026845033
0.00030784076
0.00043605594
0.00071383011
0.0012391057
0.00069317369
0.00035226953
0.00037987453
0.00043727352
0.00051726005
0.00062303321
0.00076046592
0.00093650711
0.0011595614
0.0014397008
0.0017896859
0.0022228995
0.0027586636
0.0034168319
0.0042275326
0.0052181964
0.006419672
0.0078746741
0.0096284272
0.011552446
0.013897136
0.016612832
0.019327261
0.021227282
0.022233158
0.00076012633
0.00079492296
0.0007522394
0.00067427252
0.00063724944
0.00070453792
0.00087757067
0.0010816358
0.0012134404
0.0012175766
0.0011455938
0.0010555249
0.00098065389
0.00091586409
0.00090478474
0.00099674524
0.0011386535
0.00063418208
0.00048248553
0.00038923168
0.00036133403
0.00035714168
0.00034498981
0.00031367441
0.00027908247
0.00026451133
0.00028925553
0.00038329256
0.00059993862
0.0010057656
0.0012507129
0.00039343908
0.00034154089
0.00038012883
0.00043944265
0.00052063169
0.00062757165
0.00076574519
0.00094147464
0.0011624519
0.0014382083
0.0017806535
0.0022036366
0.002727557
0.003374018
0.0041649981
0.0051315083
0.0063096136
0.0077439481
0.0093558434
0.011327338
0.013813906
0.016354527
0.018806662
0.020609219
0.021600377
0.00062998876
0.00073444136
0.00075769651
0.00071288174
0.00064232329
0.00061522297
0.00068862631
0.00086761885
0.0010807091
0.0012182903
0.0012262261
0.0011509284
0.0010543485
0.00097353542
0.00090532498
0.00089643146
0.00099838183
0.0011593633
0.0004954761
0.00040599781
0.00037807366
0.00037648525
0.00036810479
0.00033598035
0.00029236917
0.00026462985
0.00027177896
0.00034666119
0.00051977696
0.00084216092
0.0013293498
0.00055875459
0.00032368921
0.00033843193
0.000380481
0.00044153378
0.00052445103
0.00063309392
0.00077237966
0.00094797966
0.0011669751
0.0014383765
0.0017736008
0.002189296
0.0027046941
0.0033391393
0.0041109602
0.0050573117
0.0062244741
0.0075535883
0.0092107822
0.011340577
0.013693169
0.016006486
0.0183728
0.020010747
0.021024841
0.00050792665
0.0006241438
0.00070801313
0.00072183109
0.00067663902
0.00061430403
0.0005955902
0.00067299942
0.00085631225
0.0010774473
0.0012199336
0.0012282664
0.0011499413
0.0010509669
0.00096413987
0.00089379889
0.00089179378
0.0010141939
0.001208746
0.00042520916
0.00039792539
0.00039841957
0.00039367012
0.00036198845
0.00031083893
0.00026927094
0.00026098262
0.00030563856
0.00046076993
0.00072495161
0.0011323986
0.00087359845
0.00036180919
0.00030978504
0.00033639435
0.00038098888
0.0004441404
0.00052933389
0.00064009163
0.0007806549
0.00095605217
0.0011728973
0.0014402478
0.0017701161
0.0021803656
0.0026874741
0.0033063315
0.0040639074
0.0050052364
0.0060962706
0.0074642841
0.0092832221
0.011310714
0.01347361
0.015727191
0.017929362
0.019472011
0.020495931
0.00044639821
0.00051996601
0.00061647756
0.00068189761
0.00068804842
0.00064430309
0.00059002452
0.00057818714
0.00065813509
0.00084453865
0.0010734851
0.0012202966
0.001228362
0.0011477027
0.0010446517
0.00095176627
0.00088187221
0.0008955566
0.0010551073
0.0013060026
0.00042094261
0.00042319914
0.00042184762
0.00039174375
0.0003337146
0.00027929031
0.00025505633
0.00027736071
0.00038782382
0.00063793446
0.00098043309
0.0013428776
0.00048476156
0.00030319693
0.00030492338
0.00033496674
0.0003821044
0.00044789741
0.00053583854
0.00064891306
0.00079062483
0.00096550115
0.0011801161
0.0014441705
0.0017705751
0.0021750927
0.0026710398
0.0032787608
0.0040346118
0.0049230143
0.0060461822
0.0075689819
0.0093138949
0.011186559
0.013312103
0.015426935
0.0175343
0.018968539
0.020014532
0.00044663206
0.00046891381
0.00053044502
0.00060757688
0.00065676459
0.00065687121
0.00061594121
0.0005690594
0.00056275405
0.00064428602
0.0008332566
0.0010716353
0.0012318986
0.001231601
0.0011436009
0.0010346926
0.00093653181
0.00087285012
0.00091715602
0.0011395737
0.0014828019
0.00045061616
0.00045293343
0.00042526009
0.00036099662
0.00029347524
0.00025468426
0.0002582768
0.00033168561
0.00052782733
0.00086303105
0.0011859901
0.00070562427
0.00035086214
0.00028403755
0.00030160826
0.00033440492
0.0003844157
0.00045340724
0.00054439695
0.00065968351
0.00080213112
0.00097617147
0.0011888504
0.0014502968
0.0017729138
0.0021697287
0.0026572301
0.0032645727
0.0039847481
0.00489928
0.0061673637
0.0076402055
0.0092610456
0.011112739
0.013127755
0.015160225
0.017154205
0.018510441
0.019574603
0.00048002876
0.00047384398
0.00049050744
0.0005388345
0.00059787352
0.00063309373
0.0006285727
0.00059114175
0.00055078879
0.00054878724
0.00063147331
0.00082634698
0.0010881897
0.0012506845
0.0012378181
0.0011381129
0.001021585
0.00092107388
0.00087472118
0.00097450176
0.001299986
0.0017933633
0.00048695108
0.00046262929
0.00039252891
0.00031169621
0.00025801723
0.00024660222
0.00029090783
0.00043856871
0.00071867279
0.0010611551
0.0010291846
0.00047711424
0.00029883627
0.00027491106
0.00029924561
0.00033516911
0.00038855808
0.00046118001
0.00055523245
0.00067230789
0.00081500847
0.00098815244
0.0011992142
0.0014578785
0.0017755366
0.0021656894
0.0026531836
0.0032373887
0.0039786124
0.0050267522
0.0062640946
0.0076372446
0.0092439954
0.011011571
0.012959689
0.014895744
0.016807808
0.01808611
0.019176084
0.00052380545
0.00051027568
0.00050004876
0.0005095075
0.00054485747
0.00058760913
0.00061102558
0.00060305648
0.00056921473
0.00053395575
0.00053633084
0.00062315203
0.00083496981
0.0011146437
0.0012798435
0.0012499336
0.0011333638
0.0010080299
0.00091352474
0.00090588776
0.0010981268
0.0015927502
0.0023297845
0.00050394601
0.00042826465
0.00033351661
0.00026474269
0.00023915145
0.00026279858
0.00036959622
0.00059524973
0.00091997212
0.001107602
0.00067554631
0.00038080599
0.00027428763
0.00026850209
0.00029796847
0.00033786479
0.00039514259
0.00047155339
0.00056833919
0.00068662372
0.00082923421
0.0010014317
0.001210444
0.0014654404
0.0017783341
0.0021684366
0.0026414532
0.0032421528
0.0041057521
0.0051373366
0.0062942427
0.0076572119
0.0092023584
0.010917135
0.012790651
0.014654145
0.016478823
0.017699735
0.018817288
0.00054959254
0.00056341974
0.00053996763
0.00052325528
0.00052507863
0.00054835802
0.00057690155
0.00059053208
0.00057988027
0.00054923617
0.00051954757
0.00052518028
0.00062223815
0.00085218616
0.0011545674
0.0013250208
0.0012732188
0.001133906
0.0010027086
0.00093047029
0.00099663832
0.0013415914
0.0021135727
0.0032453707
0.00046809148
0.00035846391
0.0002742216
0.0002350038
0.00024293717
0.00031728053
0.00049780877
0.00077657976
0.0010268193
0.00098311247
0.00054179606
0.00033503096
0.00025941825
0.00026370873
0.00029818918
0.00034311912
0.00040464512
0.00048464633
0.00058358552
0.0007025126
0.00084461541
0.0010152399
0.0012212199
0.0014725591
0.0017851206
0.0021667718
0.0026521594
0.0033637327
0.0042220898
0.0051877228
0.0063384148
0.0076570692
0.0091609661
0.010821679
0.012633149
0.014416176
0.016178987
0.017351199
0.018495215
0.00051162922
0.00059983032
0.00060605606
0.00056938662
0.00054274371
0.00053716639
0.0005494498
0.00056581351
0.00057121544
0.00055874669
0.00053157292
0.00050383324
0.00051594331
0.00062706022
0.00088047361
0.0012154136
0.0013953062
0.0013159708
0.0011498712
0.0010234184
0.0010005651
0.0011919603
0.0017905606
0.0030388388
0.0047592367
0.0003859166
0.00028570223
0.00023342394
0.00022851297
0.00027809313
0.00041953772
0.0006542305
0.00091041615
0.00096894753
0.00081100607
0.00048190025
0.00030915162
0.00024863553
0.00026089245
0.00030062808
0.00035145638
0.00041732872
0.00050041869
0.00060079485
0.00071965623
0.00086035691
0.0010283763
0.0012313059
0.0014824069
0.0017899879
0.0021800992
0.0027662743
0.0034814189
0.004283803
0.0052481178
0.0063662619
0.0076538959
0.0091157327
0.010726272
0.012471987
0.014197596
0.015908444
0.01703606
0.018206992
0.00041504218
0.00055838138
0.00065530822
0.0006529835
0.00060028946
0.00056041967
0.00054642459
0.00054834439
0.00055418926
0.00055340799
0.00053967364
0.00051193465
0.00048829024
0.00050943013
0.00063895169
0.00092724472
0.0013092828
0.0015043359
0.0013916099
0.0012014166
0.0010994223
0.0011688471
0.0015712588
0.0026181166
0.004631838
0.007101389
0.00029835666
0.00023365195
0.00021781469
0.00024998982
0.00035700694
0.00055319873
0.00078728736
0.00090160352
0.0008180988
0.00071217582
0.00045801257
0.00029230969
0.00024054656
0.00026052116
0.00030601647
0.0003632468
0.00043327613
0.00051871062
0.00061957203
0.0007372516
0.00087556752
0.0010406181
0.0012432005
0.0014912676
0.0018038778
0.0022854435
0.0028818019
0.0035482717
0.0043541992
0.0052942872
0.0063890767
0.0076446901
0.0090670563
0.010626101
0.012322832
0.01400036
0.015662379
0.016750208
0.017951043
0.00031132457
0.00044471102
0.00060913376
0.00071594715
0.00070585769
0.00063544106
0.00057936074
0.00055347269
0.00054529129
0.00054327965
0.00053736404
0.00052028111
0.00049217008
0.00047264201
0.00050703076
0.00066398397
0.0010039713
0.0014560354
0.0016727047
0.0015224497
0.0013238562
0.0012832338
0.0015209884
0.0022997867
0.00410831
0.0071506382
0.010421156
0.00023492989
0.00020978057
0.00022907301
0.00030737709
0.00047033241
0.00067337473
0.00080809873
0.00076254476
0.00065013537
0.00057275222
0.00045101349
0.00028062562
0.00023513483
0.00026328285
0.00031501878
0.00037866673
0.00045239219
0.00053908277
0.00063911109
0.00075447175
0.00089000892
0.0010538753
0.0012543317
0.0015044364
0.0019000824
0.0023960378
0.0029498605
0.0036231986
0.0044107761
0.0053343822
0.0064049703
0.0076293011
0.0090104756
0.010531148
0.012190741
0.013818615
0.015435529
0.016494724
0.01772432
0.00023656225
0.0003238614
0.00047544324
0.00066204368
0.00078191296
0.00076599884
0.00067691464
0.00060059845
0.00056004382
0.00054299457
0.00053353271
0.00052105268
0.00049966791
0.00047201688
0.00045897365
0.0005130741
0.00071160529
0.0011309917
0.001688054
0.0019310638
0.0017479597
0.0015798092
0.001669879
0.0022170479
0.0036621956
0.0065897367
0.008904685
0.012872742
0.00020365924
0.00021332877
0.00027059523
0.00040202845
0.0005755084
0.00070670556
0.00068979878
0.00058259946
0.00049243144
0.00044952723
0.00044948944