/*--------------------------------*- C++ -*----------------------------------*\
  =========                 |
  \\      /  F ield         | OpenFOAM: The Open Source CFD Toolbox
   \\    /   O peration     | Website:  https://openfoam.org
    \\  /    A nd           | Version:  8
     \\/     M anipulation  |
\*---------------------------------------------------------------------------*/
FoamFile
{
    version     2.0;
    format      ascii;
    class       volScalarField;
    location    "300.966377299864348";
    object      omega_0;
}
// * * * * * * * * * * * * * * * * * * * * * * * * * * * * * * * * * * * * * //

dimensions      [0 0 -1 0 0 0 0];

internalField   nonuniform List<scalar> 
9200
(
0.0044992649
0.0045088337
0.0044994253
0.0045213838
0.0045084934
0.0044977771
0.0045412465
0.0045203402
0.0045064166
0.004497069
0.0045706002
0.0045393142
0.0045178223
0.004505411
0.0044965417
0.0046153493
0.0045678367
0.0045359775
0.0045165201
0.0045046599
0.0044965167
0.0046847132
0.0046114298
0.0045631452
0.0045340897
0.0045156159
0.004504522
0.0044967521
0.0047966408
0.004678881
0.0046043809
0.0045602143
0.0045328443
0.0045154689
0.0045047026
0.0044971453
0.0049872463
0.0047871077
0.0046676487
0.0045995336
0.0045583645
0.0045326201
0.004515713
0.0045050539
0.0044975429
0.0053245503
0.0049700621
0.0047680587
0.0046592579
0.0045965233
0.0045579834
0.0045329317
0.004516117
0.0045053841
0.0044978545
0.0059402181
0.0052924853
0.00493529
0.0047527836
0.0046539855
0.004595725
0.0045583924
0.004533404
0.0045164322
0.0045055884
0.0044980491
0.0071570817
0.005874167
0.0052295902
0.0049055322
0.0047428132
0.0046521355
0.0045961512
0.0045589977
0.0045336791
0.0045165312
0.0045056445
0.0044981532
0.0098264257
0.0069964235
0.0057520818
0.0051706171
0.0048855009
0.0047383798
0.0046523682
0.0045968917
0.0045592677
0.0045335832
0.0045164019
0.0045055976
0.0044982316
0.015842799
0.0093766713
0.0067185579
0.0056368001
0.0051274864
0.0048752978
0.0047376515
0.0046531418
0.0045971316
0.0045589192
0.0045331264
0.0045161257
0.004505536
0.0044983567
0.02837943
0.014719397
0.0086468237
0.0064633155
0.005550253
0.0051040567
0.0048716929
0.004738204
0.0046532641
0.0045964048
0.0045579635
0.004532459
0.0045158313
0.0045055575
0.0044985911
0.052929462
0.025780868
0.012770956
0.0079990879
0.0062819371
0.0055031509
0.0050952434
0.0048719312
0.0047382818
0.0046519069
0.0045946923
0.0045566713
0.0045317824
0.0045156662
0.004505742
0.0044989798
0.094644505
0.047216236
0.021086825
0.011035731
0.0075696229
0.0061878568
0.0054877534
0.0050953353
0.0048721645
0.0047361271
0.0046489679
0.0045924202
0.0045554011
0.0045313074
0.0045157427
0.0045061402
0.0044995463
0.15217579
0.083884711
0.036778842
0.01698296
0.0099494447
0.0073624576
0.0061586144
0.0054878544
0.0050955662
0.0048689967
0.0047314338
0.0046451149
0.0045902292
0.0045544484
0.0045312065
0.0045161222
0.0045067718
0.0045002961
0.21602272
0.1357649
0.06395783
0.027672483
0.014437439
0.0094632164
0.0073081895
0.0061595329
0.0054874083
0.0050901946
0.0048619615
0.004725274
0.0046413859
0.004588637
0.0045540545
0.0045315615
0.0045168153
0.0045076281
0.0045012127
0.27492172
0.19620106
0.1046564
0.046411217
0.022307099
0.013316972
0.0093587113
0.007326167
0.0061601353
0.0054761963
0.0050783948
0.004852539
0.0047191973
0.0046387328
0.0045879165
0.0045543511
0.0045323696
0.0045177915
0.0045086769
0.0045022615
0.32309923
0.25597339
0.15628308
0.076753088
0.036444054
0.020358051
0.013184553
0.0094471831
0.007342355
0.0061396442
0.0054524875
0.0050625207
0.0048429341
0.0047146939
0.0046376494
0.0045882073
0.0045553205
0.004533563
0.0045189907
0.0045098686
0.0045033963
0.36045166
0.30841799
0.21283904
0.11954263
0.061961085
0.033926593
0.020766408
0.013603338
0.009531498
0.0073034668
0.0060936762
0.005420967
0.0050461068
0.0048353868
0.0047127021
0.0046381675
0.0045894794
0.0045568346
0.0045350319
0.0045203351
0.0045111431
0.0045045645
0.38800903
0.3514474
0.26795132
0.17159022
0.10223333
0.061463736
0.03710736
0.022629331
0.014030527
0.0094579225
0.0071975171
0.0060316132
0.0053882554
0.0050325752
0.0048312783
0.0047132911
0.0046400301
0.0045915035
0.0045587003
0.0045366474
0.0045217398
0.0045124363
0.0045057127
0.40730086
0.38549603
0.31772309
0.22707611
0.15548922
0.10843427
0.072586994
0.0439477
0.024561067
0.013952269
0.0091866167
0.0070514862
0.0059662793
0.0053601479
0.0050239818
0.0048308194
0.0047158583
0.0046428304
0.0045939449
0.0045607024
0.0045382803
0.0045231219
0.0045136869
0.0045067921
0.41990128
0.41138097
0.36081545
0.28036097
0.2150091
0.17249942
0.13404082
0.090901989
0.050773783
0.024828408
0.013194192
0.0088023401
0.0069024095
0.0059067919
0.0053399275
0.005020441
0.0048332232
0.0047195582
0.0046460203
0.0045964509
0.0045626394
0.0045398156
0.004524408
0.0045148416
0.004507763
0.42717013
0.42964579
0.39657636
0.32789848
0.27253411
0.24346137
0.21666915
0.17034468
0.10795325
0.052223997
0.02274206
0.012052839
0.0084223293
0.0067740172
0.0058585372
0.0053273307
0.0050203753
0.0048369698
0.0047234525
0.0046490509
0.0045987127
0.0045643458
0.0045411616
0.0045255403
0.0045158594
0.0045085979
0.43053508
0.4415271
0.42480463
0.36852908
0.32235866
0.30873687
0.30384046
0.27278205
0.20155182
0.11147947
0.046295541
0.019280508
0.010964857
0.0081153623
0.0066731765
0.0058211294
0.0053186885
0.0050213437
0.0048404977
0.0047267238
0.0046514777
0.0046005005
0.0045657033
0.0045422558
0.0045264808
0.0045167145
0.0045092827
0.43120587
0.44848488
0.44625824
0.40223748
0.36326469
0.36085812
0.37727636
0.37376579
0.31644342
0.20702878
0.097557967
0.036146281
0.015965997
0.010167743
0.0078892355
0.0065892767
0.0057896298
0.0053105964
0.0050212381
0.0048426027
0.0047287863
0.0046530064
0.0046016738
0.0045666466
0.0045430676
0.0045272119
0.0045173962
0.0045098161
0.43014007
0.45180593
0.46198708
0.42962625
0.39603272
0.40005405
0.42921054
0.45060467
0.42308609
0.3223232
0.18154748
0.073197534
0.026677189
0.013668953
0.0096511547
0.0077136458
0.0065117802
0.0057587597
0.0053000023
0.0050184055
0.0048425163
0.004729307
0.0046535001
0.0046021832
0.0045671628
0.0045435938
0.0045277332
0.0045179073
0.0045102079
0.42804081
0.45259804
0.47306939
0.45150739
0.42200459
0.42860819
0.4634096
0.49801254
0.49920208
0.4283067
0.28614618
0.13656977
0.049390402
0.020347301
0.012307424
0.0093064839
0.0075637399
0.0064340818
0.0057238871
0.0052847202
0.0050118984
0.0048399378
0.0047281704
0.0046529654
0.0046020575
0.0045672775
0.0045438513
0.0045280582
0.004518262
0.0045104758
0.4253323
0.45173873
0.48050544
0.46876558
0.44248874
0.44917947
0.48452553
0.52450135
0.54128681
0.50548062
0.38763939
0.22096186
0.090612928
0.033256487
0.016777729
0.011517833
0.009053778
0.0074205644
0.0063521138
0.0056821943
0.0052638834
0.0050015323
0.0048349836
0.0047254595
0.0046515188
0.0046013755
0.0045670404
0.0045438729
0.0045282116
0.0045184823
0.0045106426
0.42206181
0.44969009
0.48512421
0.48210325
0.45860048
0.46396179
0.49710449
0.53736319
0.56210805
0.55149835
0.46836959
0.31083564
0.14986728
0.057008175
0.024521471
0.01487199
0.011037995
0.0088375082
0.0072720083
0.0062625512
0.0056331571
0.0052376798
0.004987934
0.0048280302
0.0047214864
0.0046493386
0.004600244
0.0045665165
0.0045437016
0.0045282245
0.004518595
0.0045107332
0.41885629
0.4465412
0.48716574
0.49232091
0.47121898
0.47460056
0.50412859
0.54229574
0.57085738
0.57533234
0.52414027
0.39156507
0.21977857
0.093803424
0.037574285
0.02017926
0.013852924
0.010704564
0.0086230874
0.0071139161
0.0061653143
0.0055778165
0.0052074623
0.0049722035
0.0048195859
0.0047166215
0.004646629
0.004598783
0.0045657789
0.0045433856
0.004528132
0.0045186289
0.0045107722
0.4160162
0.4431416
0.48683305
0.50059326
0.48115246
0.48223011
0.50758492
0.54245495
0.57237635
0.58660717
0.55996848
0.45692757
0.29060648
0.14104931
0.05827144
0.028341001
0.018130494
0.013283315
0.01041593
0.0083943192
0.0069485534
0.0060624435
0.0055188697
0.0051753602
0.0049553898
0.0048101873
0.0047112301
0.0046435935
0.0045971124
0.0045649001
0.0045429731
0.0045279691
0.0045186117
0.0045107822
0.4138259
0.43991977
0.4848495
0.50617041
0.48953229
0.48793145
0.50879339
0.54001529
0.56962427
0.59055801
0.58252648
0.50748866
0.35584902
0.19418789
0.087355262
0.040635406
0.024602365
0.017199039
0.012907175
0.010122428
0.0081489979
0.0067785615
0.0059583423
0.0054600745
0.0051436017
0.0049384095
0.0048003922
0.0047056317
0.0046404142
0.0045953403
0.0045639504
0.0045425084
0.0045277677
0.004518568
0.0045107821
0.4124828
0.4371612
0.4817232
0.50914335
0.49640758
0.49182502
0.50917991
0.53647906
0.56473994
0.58973259
0.59594714
0.54577864
0.41336596
0.24902514
0.12375819
0.058762984
0.034443874
0.023559365
0.016816272
0.012588846
0.0098130222
0.0078920541
0.0066097234
0.0058589882
0.0054050135
0.0051139999
0.0049220019
0.0047907494
0.004700079
0.0046372397
0.0045935568
0.0045629879
0.0045420289
0.0045275545
0.0045185188
0.004510787
0.41209236
0.43507931
0.47784406
0.50982324
0.50152926
0.49513314
0.50843298
0.53286922
0.55900379
0.58599328
0.60266768
0.57423838
0.46303586
0.3030599
0.1662687
0.084844587
0.049911072
0.034368825
0.023959337
0.016706653
0.012276936
0.0094802674
0.0076318924
0.0064511321
0.0057697364
0.0053563542
0.0050877268
0.0049068038
0.0047816986
0.0046947758
0.004634183
0.0045918335
0.0045620565
0.0045415646
0.0045273504
0.0045184803
0.0045108077
0.41270017
0.43376597
0.47357937
0.50849735
0.5047709
0.49757563
0.50719009
0.52960932
0.5532116
0.58078305
0.60466341
0.59476531
0.50529588
0.35476521
0.21398771
0.1216701
0.07585857
0.053744555
0.038069746
0.025334699
0.016766455
0.011922488
0.009121456
0.007382008
0.0063111263
0.0056942405
0.005315718
0.0050653456
0.0048933754
0.004773532
0.004689915
0.0046313382
0.0045902218
0.0045611853
0.0045411373
0.0045271711
0.0045184639
0.0045108513
0.41430838
0.43322179
0.46906717
0.50554051
0.50612468
0.49917832
0.50569711
0.52493835
0.54834197
0.57509508
0.60371185
0.60901074
0.54074076
0.4029652
0.26473807
0.1702363
0.1196341
0.091261293
0.066803625
0.044866904
0.027553667
0.016792214
0.011477751
0.0087506218
0.0071565275
0.0061954061
0.005634422
0.0052837297
0.0050470348
0.0048820126
0.0047664697
0.0046856261
0.004628798
0.0045887719
0.0045603995
0.0045407612
0.0045270269
0.0045184766
0.0045109212
0.41682682
0.43341777
0.46430498
0.50106805
0.50574295
0.49996073
0.50429887
0.52118086
0.54196369
0.56937697
0.6010484
0.61869494
0.57002473
0.44680382
0.31542679
0.2267617
0.18300166
0.1594683
0.12828932
0.088747322
0.054647103
0.029867815
0.016461727
0.010943062
0.008392983
0.006966279
0.0061068026
0.0055907035
0.0052600779
0.0050326098
0.0048727552
0.0047606054
0.0046819893
0.0046266112
0.0045875148
0.004559722
0.0045404458
0.0045269233
0.0045185218
0.0045110179
0.43411778
0.42016751
0.45978854
0.49515372
0.50382149
0.49992805
0.50318799
0.51845894
0.53723876
0.56187951
0.59615199
0.62559923
0.59418706
0.48584824
0.36361931
0.28452418
0.25794875
0.25588129
0.2383747
0.18634672
0.119895
0.064978703
0.03076752
0.015612316
0.010367871
0.0080751802
0.0068168927
0.0060454738
0.0055620022
0.0052435737
0.00502171
0.004865483
0.004755871
0.004679
0.0046247893
0.0045864545
0.0045591555
0.0045401983
0.0045268624
0.0045185997
0.0045111398
0.45422128
0.43562516
0.42397698
0.4881984
0.50052367
0.49914139
0.50245128
0.51708116
0.53411502
0.5556443
0.58813525
0.62722315
0.61610756
0.52026016
0.40774812
0.33933109
0.3314129
0.35940574
0.37929089
0.34784388
0.26075566
0.15216053
0.070515614
0.029276137
0.014365192
0.0098215502
0.0078146822
0.0067086351
0.0060089305
0.0055454822
0.0052328012
0.0050139072
0.0048599905
0.0047521643
0.0046765994
0.0046232994
0.0045855779
0.0045586887
0.0045400136
0.0045268437
0.0045187082
0.0045112836
0.48076604
0.45035838
0.43746944
0.42786586
0.49615923
0.49774262
0.5021431
0.51717541
0.53300266
0.55088514
0.58039033
0.62339567
0.63458781
0.55193854
0.44733055
0.38878633
0.39720155
0.45324508
0.5160847
0.53661959
0.47189397
0.32835109
0.16905623
0.067781347
0.025725218
0.013034471
0.0093431588
0.0076176192
0.0066371868
0.0059913889
0.0055376914
0.0052265791
0.0050087563
0.0048560591
0.0047493679
0.004674717
0.0046220994
0.0045848611
0.004558311
0.0045398799
0.0045268622
0.0045188435
0.004511445
0.49114257
0.47364663
0.44745129
0.43932941
0.4314961
0.49588722
0.50234365
0.51875352
0.53402359
0.54798939
0.57340729
0.61761944
0.64425073
0.58619725
0.48236267
0.43196538
0.45306058
0.52981983
0.62713981
0.70141782
0.69864847
0.57244023
0.35878399
0.16156583
0.057887513
0.021439217
0.011902525
0.008959344
0.0074799667
0.0065938691
0.0059850089
0.0055360221
0.0052239965
0.0050058124
0.0048534415
0.0047473374
0.0046732682
0.004621139
0.0045842784
0.0045580111
0.0045397881
0.00452691
0.0045189999
0.0045116187
0.49384401
0.48595222
0.46735673
0.4452484
0.44097502
0.43458399
0.50316055
0.52180586
0.53714046
0.54704683
0.56755715
0.61073819
0.64850436
0.61432393
0.51701137
0.46847668
0.49862016
0.58898337
0.70604847
0.81549069
0.8698117
0.81174091
0.61031261
0.34023247
0.13416255
0.045027122
0.017694821
0.011086058
0.0086839064
0.0073887281
0.0065678114
0.0059841829
0.0055386979
0.0052242057
0.0050045872
0.0048518591
0.0047459123
0.0046721631
0.004620366
0.0045837996
0.004557773
0.0045397325
0.0045269776
0.0045191713
0.004511799
0.50474352
0.49192299
0.48108548
0.46209838
0.4436493
0.44223018
0.43688416
0.52629083
0.54214697
0.54796431
0.56322111
0.60330032
0.64900004
0.63585032
0.55054986
0.494784
0.53467377
0.63247637
0.75878555
0.87992949
0.96188527
0.96948405
0.84365808
0.57777471
0.28335054
0.099590591
0.033231333
0.015067922
0.010529609
0.0084943447
0.0073259608
0.0065507839
0.005985799
0.005544213
0.0052263105
0.0050045755
0.004851029
0.0047449303
0.0046713122
0.0046197315
0.0045833976
0.0045575786
0.0045397028
0.0045270585
0.0045193509
0.0045119812
0.53213164
0.5073597
0.49056724
0.47696736
0.45800533
0.44259562
0.44296643
0.43819709
0.54869971
0.55045502
0.56045201
0.59621369
0.64624881
0.65147312
0.58121613
0.52110892
0.55110641
0.66439759
0.79198508
0.91283402
0.99632353
1.0329638
0.9890521
0.80312209
0.49161459
0.21032005
0.069415247
0.024648542
0.013502715
0.010123065
0.0083583924
0.0072785201
0.0065374034
0.0059875003
0.0055510364
0.00522945
0.0050053051
0.0048506821
0.004744237
0.004670633
0.0046191891
0.0045830478
0.0045574136
0.0045396888
0.0045271475
0.0045195315
0.0045121601
0.55625554
0.53936206
0.51122425
0.48996228
0.47389207
0.45517266
0.44204898
0.44311271
0.43837477
0.55406716
0.5591101
0.58995834
0.64162943
0.6615067
0.6075848
0.54677208
0.56646895
0.67303237
0.81337742
0.92702893
1.0017689
1.0401633
1.0442991
0.95535973
0.70755578
0.37748572
0.14207209
0.047214022
0.019550873
0.012639842
0.0098339735
0.0082533741
0.0072382635
0.0065241301
0.0059873209
0.0055577232
0.0052328683
0.0050063549
0.0048505727
0.0047436946
0.0046700414
0.0046186979
0.0045827272
0.0045572644
0.0045396821
0.004527238
0.0045197076
0.0045123302
0.55822662
0.56404556
0.54768883
0.51582797
0.49010392
0.47207358
0.45363795
0.44196554
0.44263255
0.4372904
0.55897453
0.58470204
0.63612061
0.6668861
0.62896715
0.57061391
0.58061496
0.67775133
0.81560503
0.93063933
0.9935052
1.024374
1.0471228
1.0282572
0.8777276
0.57238817
0.26258519
0.091148533
0.033279432
0.01688371
0.012061099
0.0096155412
0.0081654979
0.0072001415
0.0065085203
0.0059838534
0.0055630224
0.0052359305
0.0050073569
0.0048504897
0.0047431971
0.0046694718
0.0046182229
0.0045824161
0.0045571191
0.0045396742
0.0045273241
0.0045198755
0.0045124877
0.5597949
0.56230607
0.57109077
0.55601423
0.52008014
0.4911736
0.47161615
0.45336809
0.44228265
0.4415085
0.43485629
0.58059728
0.62984177
0.66925155
0.64502734
0.59165562
0.59335164
0.67952546
0.80930415
0.92361454
0.9776357
1.0001125
1.0275653
1.0475262
0.98332136
0.75326413
0.42067816
0.16898937
0.060562955
0.025487587
0.015467568
0.011609647
0.0094398818
0.0080863261
0.0071609375
0.006489124
0.0059763522
0.005565797
0.0052381117
0.0050080059
0.0048502614
0.0047426551
0.0046688716
0.0046177354
0.0045820984
0.0045569676
0.0045396581
0.0045274013
0.0045200315
0.0045126296
0.57784515
0.56127122
0.56567488
0.57641826
0.56060022
0.52455776
0.49323501
0.47250863
0.45426112
0.44289118
0.43972341
0.43118474
0.62296838
0.66863053
0.65594545
0.60924518
0.60448812
0.67925858
0.79964484
0.90593032
0.95897708
0.97405205
1.0006531
1.038223
1.0345555
0.89205845
0.59114627
0.2820167
0.10658604
0.042787497
0.02140934
0.014636178
0.011262738
0.0092898087
0.0080106062
0.0071189316
0.006465404
0.005964613
0.0055649356
0.0052390054
0.0050080665
0.0048497555
0.0047419721
0.0046682003
0.0046172136
0.0045817612
0.0045568016
0.0045396293
0.0045274669
0.0045201723
0.0045127521
0.61637825
0.5768022
0.56285258
0.5677388
0.57947634
0.565165
0.52907198
0.49624036
0.47464461
0.45610615
0.44362646
0.43731642
0.42638205
0.6640992
0.66246452
0.62291784
0.61379856
0.67764337
0.78802448
0.8891957
0.93765769
0.95147719
0.97324912
1.0169963
1.0490631
0.98336356
0.74765504
0.42039055
0.17938936
0.072148749
0.032694602
0.019254653
0.013983504
0.010982709
0.0091546931
0.0079354141
0.0070735073
0.0064374312
0.0059488122
0.0055597385
0.0052383351
0.0050073713
0.004848904
0.0047410879
0.0046674305
0.004616642
0.0045813948
0.004556617
0.0045395866
0.0045275177
0.0045202873
0.0045127998
0.65689889
0.6114355
0.57731499
0.56417015
0.56797165
0.58011213
0.56804745
0.53340875
0.49998379
0.47776469
0.45876878
0.44412965
0.43415651
0.41982736
0.66479431
0.6325052
0.62122403
0.67507732
0.77563114
0.8712777
0.9202033
0.92791599
0.94793293
0.99252994
1.0437418
1.035049
0.87342542
0.56758494
0.27713645
0.11583364
0.05242028
0.02724677
0.018040512
0.013462737
0.010745746
0.0090281649
0.0078593296
0.0070246895
0.0064056126
0.0059293743
0.0055506822
0.005235943
0.0050058181
0.0048476374
0.0047399724
0.0046665459
0.00461601
0.0045809955
0.0045564139
0.0045395264
0.0045275331
0.0045202635
0.0045128233
0.66328944
0.649109
0.60881451
0.57908906
0.56491074
0.56597545
0.57771927
0.56906906
0.53715609
0.50420548
0.48167285
0.46099228
0.44444353
0.42983324
0.41102608
0.63837074
0.62682242
0.67205208
0.76316281
0.85420733
0.9026538
0.90793419
0.92052959
0.9667782
1.0298797
1.0593729
0.96508612
0.70686104
0.39276742
0.17831502
0.081844648
0.041150494
0.024342037
0.017216418
0.013046594
0.010536505
0.0089064522
0.0077817598
0.006972808
0.0063705306
0.0059068598
0.0055384286
0.0052317682
0.0050033843
0.0048458926
0.0047386155
0.0046655377
0.0046153146
0.004580565
0.0045561884
0.00453941
0.004527206
0.0045202261
0.0045128252
0.64120508
0.65906297
0.64251744
0.60843481
0.58181217
0.56483254
0.5615677
0.57222081
0.56770332
0.53998885
0.5085234
0.48473493
0.46351295
0.4442982
0.42386596
0.39934095
0.63096037
0.66908856
0.75144617
0.83871355
0.88802445
0.89114086
0.89607025
0.93534463
1.0082439
1.0692279
1.0278482
0.82592502
0.51636416
0.25782919
0.12115839
0.062612777
0.034854153
0.022734766
0.016521404
0.012701695
0.010345186
0.0087872957
0.007702571
0.0069183321
0.0063328214
0.0058818608
0.0055236131
0.005225833
0.0050001178
0.0048436728
0.0047370157
0.0046644046
0.0046145599
0.0045801001
0.0045558758
0.0045386447
0.0045268748
0.0045201786
0.0045128011
0.63415948
0.64205113
0.65346004
0.63788413
0.61017797
0.58517782
0.56376394
0.55465668
0.5633577
0.56360006
0.54145301
0.51110956
0.48773173
0.46580402
0.44305184
0.41549495
0.38388667
0.66675951
0.74136782
0.82565671
0.87686991
0.87868322
0.87549447
0.90501922
0.97670961
1.0618653
1.0752942
0.92156565
0.63652486
0.34958168
0.1718986
0.091651429
0.051792319
0.031480914
0.021766517
0.015966303
0.012404739
0.010165439
0.0086693891
0.0076218918
0.0068617968
0.0062931003
0.0058549257
0.0055068257
0.0052182675
0.0049959842
0.0048409995
0.0047351785
0.0046631552
0.0046137467
0.0045794984
0.0045543675
0.0045379004
0.0045265544
0.0045201137
0.0045127496
0.66571902
0.63697429
0.64192855
0.64818043
0.6356896
0.61381216
0.58891388
0.5615889
0.54531404
0.55097905
0.55611695
0.53944772
0.51226796
0.49011679
0.46719786
0.43983611
0.40367354
0.36353846
0.73380389
0.81569428
0.86991018
0.8713603
0.85914946
0.87791152
0.94285501
1.0391276
1.1018361
1.0049698
0.74692783
0.44749686
0.23478829
0.12743415
0.075529461
0.045708587
0.029682247
0.021070918
0.015519221
0.012139738
0.0099931947
0.0085520781
0.0075400088
0.0068037372
0.0062519125
0.005826548
0.0054885971
0.0052093655
0.0049910305
0.0048378919
0.0047331217
0.0046618024
0.0046127189
0.0045768136
0.0045529257
0.0045372013
0.0045262352
0.0045200284
0.0045126693
0.72953443
0.66643398
0.64027019
0.64196562
0.64460907
0.63613105
0.61912345
0.59277894
0.55830672
0.53384374
0.53511711
0.54355976
0.53373521
0.51180057
0.49105206
0.46668291
0.43335492
0.3869462
0.33687692
0.80934038
0.86691371
0.86923113
0.8473982
0.85406874
0.91060639
1.0082394
1.1040363
1.0862636
0.85064254
0.54747737
0.30543402
0.16970753
0.10535724
0.067219505
0.042646926
0.028727056
0.020499167
0.015147088
0.011896103
0.0098259878
0.0084351674
0.0074573048
0.0067446384
0.0062097238
0.0057971898
0.0054694035
0.0051991733
0.0049853182
0.0048343868
0.0047308859
0.0046601127
0.0046081051
0.004574283
0.0045515911
0.0045365329
0.0045259158
0.0045199167
0.0045125584
0.80695342
0.72889739
0.66984697
0.64475966
0.643209
0.64374225
0.63930032
0.62586897
0.59654842
0.55385028
0.52068992
0.51632987
0.52770058
0.52509493
0.50866919
0.48937182
0.46275041
0.42189104
0.3633978
0.30223483
0.86728623
0.87111319
0.83999852
0.83404231
0.88000683
0.9762317
1.0881318
1.1358489
0.97757967
0.65003496
0.38204489
0.22002654
0.14085336
0.09470044
0.06336435
0.041358157
0.02823584
0.02004939
0.01482595
0.011667031
0.0096624865
0.008318772
0.007374218
0.0066849896
0.0061669901
0.0057672694
0.0054496816
0.005187783
0.0049789341
0.0048305784
0.0047281241
0.0046523311
0.0046038107
0.0045719676
0.0045503407
0.0045358936
0.0045255886
0.0045197749
0.0045124146
0.87023148
0.80855131
0.73223762
0.67621633
0.65102487
0.64649569
0.6460765
0.64513293
0.63374047
0.59978559
0.54814068
0.50638115
0.49593047
0.50832708
0.51225331
0.50146649
0.48352133
0.45357248
0.4031231
0.33047487
0.2582052
0.87493697
0.83564571
0.817321
0.85235109
0.94355328
1.0656623
1.1542883
1.0828706
0.79589854
0.46517073
0.27780949
0.18090273
0.12850811
0.09096334
0.062277439
0.041124091
0.028018673
0.019702031
0.01453909
0.011448363
0.0095021232
0.0082032065
0.0072912396
0.0066253081
0.0061241514
0.0057371864
0.0054294467
0.0051753866
0.0049720721
0.0048259614
0.0047151416
0.0046451784
0.0045999251
0.004569828
0.0045491732
0.0045352725
0.0045252505
0.0045195989
0.0045122366
0.87816377
0.87461382
0.81302833
0.7392421
0.68556887
0.65950986
0.65237507
0.65171157
0.65338698
0.64210309
0.60181732
0.54151137
0.48807768
0.4713093
0.4839878
0.49392118
0.48865877
0.47176285
0.43668858
0.37375251
0.28558842
0.2051758
0.83205145
0.80267043
0.82768212
0.91293592
1.0382455
1.1567639
1.1573068
0.9383582
0.59397904
0.34149824
0.22684441
0.1689204
0.12598207
0.091481133
0.063148537
0.041536716
0.027971782
0.019424255
0.014275439
0.011237701
0.009344812
0.008088928
0.0072089127
0.0065660495
0.0060815339
0.0057071121
0.0054088631
0.0051623448
0.0049640316
0.0048047237
0.004703341
0.0046387841
0.0045963806
0.0045678616
0.0045480737
0.0045346655
0.0045248964
0.0045193856
0.0045120232
0.82627396
0.87769883
0.87795537
0.81911607
0.74934322
0.69767689
0.67038955
0.66105656
0.66035023
0.66295979
0.65077466
0.60218326
0.52881137
0.4652787
0.44172932
0.45385883
0.46893629
0.46862341
0.45224835
0.40931152
0.32938185
0.22798471
0.14837599
0.78827657
0.80560509
0.88551325
1.0107284
1.1459961
1.2069382
1.060093
0.74007531
0.43582272
0.28006053
0.21506748
0.16997521
0.12994377
0.09483433
0.065254839
0.042348909
0.028030167
0.019189959
0.014027817
0.01103377
0.0091907874
0.0079765033
0.0071277638
0.0065075341
0.0060394979
0.0056770436
0.0053882101
0.0051478027
0.0049307865
0.0047855564
0.0046929123
0.0046330253
0.0045931649
0.0045660435
0.0045470349
0.0045340649
0.0045245234
0.0045191321
0.0045117702
0.77239701
0.81533482
0.87110259
0.8772504
0.82561811
0.76159069
0.7119776
0.68354295
0.67227717
0.67121635
0.67487306
0.65620451
0.59729958
0.51183586
0.4369528
0.40653822
0.41741509
0.43629666
0.44029242
0.42219087
0.36637202
0.26749896
0.1633182
0.096759199
0.78512891
0.86172345
0.9859376
1.1293915
1.2315058
1.1585286
0.88588022
0.55434654
0.34747078
0.26623781
0.22379436
0.18068651
0.13845128
0.10009604
0.068017371
0.043391623
0.028144855
0.018980224
0.013791602
0.010836023
0.0090405119
0.0078665092
0.0070481964
0.0064500985
0.0059979448
0.0056472659
0.0053664225
0.0050995331
0.0049008029
0.0047687508
0.0046836328
0.0046278616
0.0045902358
0.00456436
0.0045460467
0.0045334665
0.0045241276
0.0045188321
0.0045114738
0.76481276
0.75306944
0.7978759
0.85600995
0.87045504
0.83111028
0.77462889
0.72752191
0.69819779
0.68553772
0.68451038
0.68409274
0.65933462
0.58940474
0.48856682
0.40207194
0.36529754
0.37450717
0.39570221
0.40211875
0.37680151
0.30258485
0.19308484
0.1037382
0.057830296
0.84128636
0.96554125
1.1124659
1.2400243
1.2325122
1.0176196
0.68935254
0.43456833
0.31918184
0.28479202
0.24561377
0.19876083
0.15032878
0.10658209
0.071006279
0.044535763
0.028273264
0.018781594
0.013563903
0.01064441
0.0088945042
0.0077593684
0.0069704717
0.0063937552
0.0059570827
0.005616417
0.0053018214
0.0050559053
0.0048745273
0.0047539288
0.0046754061
0.0046232188
0.004587567
0.0045627963
0.0045451026
0.0045328638
0.0045236939
0.0045184871
0.0045111346
0.82342481
0.74325599
0.7285914
0.77227464
0.83218961
0.8575116
0.83377773
0.78649829
0.74268068
0.71383048
0.70032811
0.69521595
0.69372681
0.66134492
0.57526329
0.45737711
0.35961602
0.31798031
0.32568997
0.34731487
0.35037477
0.3109492
0.22167568
0.12171285
0.05949726
0.033337019
0.95022988
1.0988083
1.2404416
1.2875215
1.128672
0.82891508
0.54056359
0.38881695
0.33656522
0.32435403
0.27880505
0.22261605
0.16467
0.11374552
0.073968146
0.045675039
0.028377933
0.018584896
0.013343027
0.010459073
0.0087530962
0.0076553068
0.0068946794
0.0063385527
0.0059150976
0.0055287252
0.0052436977
0.0050175055
0.0048513866
0.0047409118
0.0046681002
0.0046190464
0.0045851332
0.0045613398
0.0045441924
0.0045322311
0.0045232174
0.0045180977
0.0045107542
0.93998663
0.80700422
0.71834699
0.69770229
0.73840984
0.80040934
0.83810733
0.83065679
0.79449221
0.75676308
0.72949153
0.71210189
0.70774833
0.70263526
0.65897813
0.5525261
0.4159671
0.30902928
0.26553664
0.27235647
0.29062334
0.28310659
0.22900976
0.14075671
0.067881764
0.032865358
0.019743308
1.0905412
1.2385677
1.3232304
1.2177436
0.95999893
0.66104282
0.47383773
0.40421342
0.38931527
0.38263431
0.3217607
0.25084838
0.18057599
0.12109734
0.076735436
0.046713456
0.028427545
0.018384382
0.013127937
0.010279999
0.0086164093
0.0075542205
0.006820602
0.0062820325
0.0057955883
0.0054506188
0.0051925367
0.0049834878
0.0048311348
0.0047294747
0.004661617
0.004615298
0.0045829125
0.0045599747
0.0045432707
0.0045315693
0.0045226979
0.0045176652
0.0045103345
1.0885215
0.93431716
0.7896228
0.68953103
0.66003691
0.69614627
0.75993321
0.80874985
0.81887164
0.79796362
0.76803102
0.74013778
0.72411081
0.72052159
0.7096068
0.64911698
0.51727734
0.3621817
0.25114403
0.21051815
0.21643345
0.22626891
0.20545676
0.14627719
0.077748946
0.035769925
0.018934483
0.012416242
1.2386686
1.3461945
1.2936904
1.072602
0.78718239
0.57308802
0.48559447
0.47020083
0.47301898
0.45826688
0.37293394
0.28190675
0.19681176
0.12806466
0.079172024
0.047545346
0.028399212
0.018176714
0.012917733
0.010106989
0.0084837977
0.007455441
0.0067447309
0.0061171879
0.0056907606
0.00538241
0.0051472973
0.0049535499
0.0048134364
0.0047194407
0.0046558699
0.0046119326
0.0045808793
0.0045586267
0.0045423389
0.0045308778
0.0045221361
0.0045171918
0.0045098783
1.2429936
1.0927937
0.93025326
0.7713545
0.6565311
0.61588148
0.64556992
0.70975714
0.76871538
0.79797986
0.79384777
0.77163801
0.74809773
0.73601564
0.73213162
0.71158485
0.62698761
0.46416979
0.29541255
0.1896179
0.15708464
0.16062495
0.15931327
0.13026271
0.080800623
0.039626296
0.019597085
0.011800044
0.0086128327
1.3622549
1.3521811
1.1642139
0.90861631
0.68218402
0.57903717
0.56534485
0.58346112
0.58993676
0.5508316
0.43027729
0.31386227
0.2115117
0.1338596
0.081081854
0.048028499
0.028285497
0.017959766
0.012711552
0.0099375308
0.0083533258
0.0073535404
0.0065111235
0.0059759045
0.0056003444
0.0053224154
0.0051074135
0.0049272536
0.0047980223
0.0047106537
0.0046507852
0.0046089077
0.0045789135
0.0045573054
0.004541395
0.0045301568
0.0045215344
0.0045166802
0.0045093888
1.375261
1.2522228
1.1016706
0.92738207
0.75134885
0.61965477
0.56656464
0.58847752
0.65124211
0.71826679
0.76401064
0.77762118
0.76828246
0.75441587
0.74627604
0.74044455
0.70414704
0.58269578
0.38935119
0.21930699
0.13153616
0.10981998
0.1092207
0.099365813
0.072077586
0.040729235
0.020713561
0.011871484
0.0083082967
0.0067140335
1.394215
1.2403627
1.0148829
0.79450247
0.68065475
0.67069163
0.70838427
0.74585046
0.74288821
0.65743444
0.49028794
0.34413257
0.22501675
0.13869357
0.082299534
0.048107588
0.028099523
0.017731897
0.012501219
0.0097666218
0.0082156854
0.0070043569
0.0063185276
0.0058560468
0.0055215639
0.005269737
0.0050722464
0.004904267
0.0047846432
0.0047029782
0.0046462885
0.0046060324
0.0045770308
0.0045560066
0.0045404377
0.0045294081
0.004520895
0.0045161342
0.00450887
1.4231887
1.3866849
1.2675333
1.1145541
0.924424
0.72883627
0.57970985
0.51412825
0.52721915
0.58633555
0.65751187
0.71649149
0.75400106
0.76169855
0.75682007
0.75207698
0.74069967
0.67580307
0.50754576
0.2940503
0.14485657
0.084245744
0.072165833
0.067467566
0.055444106
0.036768057
0.020921878
0.012150241
0.0082995227
0.0065880115
0.0057585938
1.3004017
1.1008637
0.90223293
0.78506005
0.78028846
0.83949636
0.91263239
0.95728142
0.92943241
0.77279843
0.55025994
0.37279669
0.23718764
0.14282597
0.083109311
0.047917941
0.027851352
0.017467929
0.012274584
0.0095765862
0.0076453717
0.0067353666
0.0061590258
0.0057528499
0.0054529414
0.0052234373
0.0050412714
0.0048842859
0.004773076
0.0046962823
0.004642066
0.0046033336
0.0045752226
0.0045547264
0.0045394682