/*--------------------------------*- C++ -*----------------------------------*\
  =========                 |
  \\      /  F ield         | OpenFOAM: The Open Source CFD Toolbox
   \\    /   O peration     | Website:  https://openfoam.org
    \\  /    A nd           | Version:  8
     \\/     M anipulation  |
\*---------------------------------------------------------------------------*/
FoamFile
{
    version     2.0;
    format      ascii;
    class       volScalarField;
    location    "300.966377299864348";
    object      omega;
}
// * * * * * * * * * * * * * * * * * * * * * * * * * * * * * * * * * * * * * //

dimensions      [0 0 -1 0 0 0 0];

internalField   nonuniform List<scalar> 
9200
(
0.0044992345
0.0045088006
0.0044993907
0.0045213467
0.0045084534
0.0044977559
0.0045412061
0.00452029
0.0045063914
0.0044970727
0.0045705762
0.0045392454
0.0045177875
0.0045054162
0.004496573
0.0046153647
0.0045677348
0.00453592
0.0045165236
0.0045046993
0.0044965679
0.0046848129
0.0046112741
0.0045630369
0.0045340835
0.004515664
0.004504586
0.0044968087
0.0047968518
0.0046786328
0.0046041728
0.0045601777
0.0045329018
0.0045155488
0.0045047722
0.0044971915
0.0049875565
0.0047866752
0.0046672521
0.0045994277
0.0045584256
0.004532724
0.004515799
0.004505109
0.0044975659
0.0053249991
0.0049692288
0.0047672954
0.0046590103
0.0045965727
0.0045581165
0.0045330456
0.0045161827
0.0045054092
0.0044978483
0.0059413549
0.0052907456
0.0049337634
0.0047522431
0.004653984
0.0045958886
0.0045585453
0.0045334895
0.0045164582
0.004505577
0.0044980149
0.0071607013
0.0058708107
0.0052265818
0.0049043626
0.0047426651
0.0046523297
0.004596355
0.0045591159
0.0045337092
0.0045165105
0.0045055997
0.0044980987
0.0098376942
0.0069890071
0.0057463725
0.0051680506
0.0048850625
0.0047385813
0.0046526407
0.0045970584
0.0045593109
0.0045335494
0.0045163403
0.00450553
0.0044981681
0.015865645
0.0093575378
0.006706109
0.0056317107
0.0051263887
0.004875491
0.0047380275
0.0046533876
0.0045972008
0.0045588717
0.0045330395
0.0045160383
0.0045054602
0.0044982962
0.028401817
0.014658995
0.0086148357
0.0064525518
0.0055478395
0.0051043171
0.0048723093
0.0047386285
0.0046533908
0.0045963488
0.0045578412
0.0045323424
0.0045157384
0.0045054884
0.0044985443
0.052893547
0.025594455
0.012678847
0.0079733139
0.0062769638
0.0055037426
0.0050965723
0.0048727933
0.004738582
0.0046518591
0.0045945289
0.0045565133
0.0045316641
0.0045155878
0.0045056922
0.0044989545
0.094398435
0.046710017
0.020838886
0.010966671
0.0075590209
0.0061892763
0.005490643
0.0050971713
0.0048728969
0.0047361773
0.0046487653
0.0045922098
0.0045552498
0.0045312157
0.0045156943
0.0045061182
0.004499547
0.15154346
0.082771935
0.036162885
0.01680805
0.0099239111
0.007366505
0.0061645595
0.0054916771
0.0050972289
0.0048693814
0.0047312554
0.0046448449
0.0045900441
0.0045543405
0.0045311619
0.0045161127
0.0045067816
0.0045003238
0.21498403
0.13384957
0.062679332
0.027270988
0.014376458
0.0094732169
0.0073225285
0.0061674182
0.0054909537
0.0050913138
0.0048620051
0.0047249828
0.0046411633
0.0045885289
0.0045540194
0.0045315737
0.0045168468
0.0045076692
0.004501265
0.27369436
0.19359625
0.10252762
0.045626691
0.022197811
0.013351788
0.0093954174
0.0073448505
0.0061673606
0.0054787043
0.0050789406
0.0048523693
0.0047189557
0.0046386533
0.0045879149
0.0045544006
0.0045324378
0.0045178601
0.0045087448
0.0045023328
0.32198533
0.25306498
0.1533945
0.075535437
0.036327538
0.020495258
0.013291634
0.0094955147
0.0073588482
0.0061444736
0.0054538417
0.0050626619
0.0048427626
0.0047146492
0.0046377493
0.0045883284
0.0045554491
0.0045336774
0.0045190878
0.0045099558
0.004503479
0.35961058
0.30562725
0.20951854
0.11802547
0.062073982
0.034428917
0.021097141
0.013749626
0.0095733536
0.0073131555
0.0060958809
0.0054214743
0.0050461324
0.0048354188
0.004712932
0.0046384354
0.0045897088
0.0045570228
0.0045351767
0.004520449
0.0045112397
0.0045046496
0.3875032
0.34902543
0.26458671
0.17000926
0.10288667
0.062865787
0.038105705
0.023086276
0.014159603
0.0094792834
0.0071999713
0.0060319877
0.0053883886
0.0050327742
0.0048316142
0.0047137609
0.0046404294
0.0045918043
0.0045589198
0.0045368034
0.0045218571
0.0045125317
0.0045057911
0.4071209
0.38358495
0.31459303
0.225604
0.15690355
0.11121837
0.07499577
0.045278573
0.024962284
0.014012796
0.0091862148
0.0070493917
0.0059657974
0.0053603588
0.0050244879
0.0048314474
0.0047164838
0.0046432972
0.0045942681
0.0045609216
0.0045384278
0.0045232291
0.0045137707
0.0045068554
0.41998933
0.41000895
0.35804141
0.27899149
0.21711176
0.1768467
0.13838
0.093811949
0.051875136
0.024995435
0.013179816
0.0087896275
0.006898726
0.0059062108
0.0053404427
0.0050211865
0.0048339991
0.0047202193
0.0046464752
0.004596746
0.0045628284
0.0045399366
0.0045244931
0.0045149047
0.0045078045
0.42746069
0.42879449
0.39422428
0.32650265
0.2749614
0.24895868
0.22286775
0.17512905
0.11008806
0.052572876
0.022655409
0.012000653
0.0084074157
0.0067706196
0.0058582332
0.005327945
0.0050211194
0.0048376935
0.0047240229
0.0046494172
0.0045989353
0.0045644794
0.0045412419
0.004525594
0.0045158952
0.0045086131
0.43096464
0.44116218
0.42294285
0.36702444
0.3246839
0.31456932
0.31102994
0.27883865
0.20453909
0.11179121
0.045883758
0.019075695
0.010913814
0.0081037612
0.0066702734
0.0058206626
0.0053190325
0.0050218226
0.0048409862
0.0047270975
0.004651694
0.0046006174
0.004565764
0.0045422859
0.0045264971
0.0045167188
0.0045092696
0.43171692
0.44855017
0.44493008
0.4006099
0.36520982
0.36633024
0.38427697
0.37986238
0.31940247
0.20671597
0.096177672
0.035421385
0.015781646
0.010134903
0.0078802957
0.0065860471
0.0057885329
0.0053103062
0.0050212063
0.0048427127
0.0047288884
0.0046530331
0.0046016659
0.004566626
0.0045430432
0.0045271883
0.0045173677
0.0045097752
0.43068605
0.45223286
0.46120494
0.42791204
0.39745694
0.40481736
0.43533006
0.45573272
0.42513233
0.32075857
0.178368
0.071145189
0.026071136
0.013559068
0.0096318739
0.0077059096
0.0065076086
0.0057565378
0.0052987674
0.0050177016
0.0048421629
0.0047290957
0.0046533221
0.0046020467
0.0045670605
0.0045435151
0.0045276702
0.0045178474
0.0045101416
0.42858419
0.45331591
0.47282032
0.44976012
0.42286087
0.43252847
0.46841039
0.50180893
0.50016593
0.42547569
0.28078659
0.13221668
0.047671525
0.019993021
0.012251444
0.00929504
0.0075559701
0.006428449
0.0057201773
0.0052823715
0.0050104331
0.0048391041
0.004727634
0.0046525914
0.0046018007
0.0045670995
0.0045437226
0.0045279593
0.004518174
0.0045103883
0.42584389
0.45268041
0.48074938
0.46703727
0.44279478
0.45226398
0.48844569
0.52716168
0.54164666
0.50203405
0.38062919
0.21381079
0.086889132
0.032268807
0.016599382
0.011494085
0.0090459001
0.0074118115
0.0063446398
0.005676892
0.0052604077
0.0049993462
0.0048337062
0.0047246339
0.0046509745
0.004601015
0.0045667974
0.0045437018
0.0045280822
0.0045183714
0.004510539
0.42251512
0.45078246
0.48581707
0.48044148
0.45840499
0.46625728
0.50011503
0.53929582
0.56215904
0.54825277
0.46081991
0.30132709
0.14344128
0.054653476
0.024028267
0.01479775
0.011030688
0.0088304046
0.007261719
0.0062532424
0.0056264238
0.0052332178
0.0049851871
0.0048263838
0.0047204345
0.0046486606
0.0045998025
0.0045662229
0.0045434979
0.004528072
0.0045184675
0.0045106193
0.41923592
0.4477261
0.48828977
0.4907489
0.47058725
0.47618537
0.50634419
0.54366252
0.5707806
0.57273905
0.51715538
0.38081698
0.21059372
0.089415132
0.036398783
0.01998018
0.013836613
0.010703626
0.008615297
0.0071020673
0.0061545969
0.0055699909
0.0052023441
0.0049690875
0.0048176667
0.0047154152
0.0046458595
0.0045982864
0.004565451
0.0045431603
0.0045279646
0.0045184915
0.0045106538
0.41632458
0.44434984
0.48832454
0.49920147
0.48016722
0.48318834
0.50912135
0.54336456
0.57228889
0.58480009
0.55425329
0.44613488
0.27927015
0.13426846
0.055890563
0.027895672
0.018094451
0.013296332
0.010416172
0.0083851818
0.0069356981
0.0060508724
0.0055105755
0.0051700102
0.0049520968
0.0048081105
0.0047099419
0.0046427755
0.0045965873
0.0045645547
0.0045427377
0.0045277953
0.0045184709
0.0045106647
0.41406326
0.44108891
0.48660413
0.5050486
0.48817283
0.48836905
0.50978749
0.54058234
0.56958134
0.58947281
0.57828093
0.49754633
0.3432839
0.18518378
0.083429498
0.039794315
0.024575781
0.017260012
0.012933837
0.010122586
0.0081385847
0.0067652243
0.0059468987
0.0054520295
0.0051384321
0.0049351245
0.0047982864
0.0047043264
0.0046395877
0.0045948115
0.0045636045
0.0045422739
0.0045275956
0.0045184302
0.0045106704
0.41265303
0.43823336
0.48363673
0.5083145
0.4947542
0.49179614
0.50974155
0.53679791
0.56472779
0.5892275
0.59308486
0.53724159
0.40047185
0.23839323
0.11843232
0.057458346
0.034568592
0.023812542
0.016944632
0.012623356
0.0098131189
0.0078803841
0.0065972013
0.0058487365
0.0053978544
0.0051093445
0.0049189063
0.0047887391
0.0046988088
0.0046364397
0.004593047
0.0045626561
0.0045418052
0.0045273912
0.0045183895
0.0045106851
0.41220094
0.43600155
0.47981379
0.50926757
0.49967446
0.49469058
0.50870268
0.53295376
0.55899321
0.58592579
0.60103019
0.56728294
0.45052664
0.29155755
0.16014077
0.083467086
0.050629301
0.035219706
0.024462557
0.016896472
0.012318419
0.0094776293
0.0076201807
0.0064408945
0.0057615618
0.005350569
0.0050838262
0.0049040756
0.004779882
0.0046936068
0.0046334384
0.0045913618
0.0045617517
0.0045413599
0.0045272018
0.0045183639
0.004510719
0.41274609
0.43449082
0.47551427
0.50817756
0.50281262
0.49677976
0.50713513
0.52957223
0.55318737
0.58103434
0.60406685
0.58944893
0.49365611
0.3430402
0.20772287
0.1211703
0.078370406
0.05622649
0.03966227
0.02611238
0.017020025
0.011959529
0.0091156584
0.007372142
0.0063044039
0.005688783
0.0053116452
0.0050623674
0.0048911648
0.004771994
0.0046889012
0.0046306847
0.004589805
0.0045609169
0.0045409583
0.0045270417
0.004518364
0.0045107781
0.41428835
0.43371054
0.47086438
0.505404
0.50415257
0.49811129
0.50539476
0.52476048
0.54827647
0.57553827
0.60397462
0.60528017
0.53026488
0.39143099
0.25886698
0.17157501
0.12573233
0.097863298
0.071323413
0.047327461
0.028629123
0.017053845
0.01150049
0.0087431231
0.0071503558
0.0061930944
0.0056321018
0.0052815416
0.0050450676
0.0048803964
0.0047652839
0.0046848114
0.0046282619
0.0045884273
0.0045601769
0.0045406127
0.0045269201
0.0045183958
0.0045108651
0.41673279
0.4336429
0.46585649
0.5010756
0.50382923
0.49871822
0.50383835
0.52097501
0.54185144
0.56983646
0.60200933
0.61643277
0.56086163
0.4357065
0.31007237
0.23021417
0.19366858
0.17283232
0.13969619
0.095816341
0.058063569
0.031008362
0.016662067
0.010948332
0.0083864727
0.0069652036
0.0061094407
0.0055916861
0.0052597671
0.0050316702
0.004871763
0.0047597976
0.0046814028
0.0046262107
0.0045872524
0.0045595516
0.0045403322
0.0045268416
0.0045184617
0.0045109797
0.43406388
0.42000806
0.46102321
0.49527854
0.50203049
0.4986062
0.50266715
0.51829344
0.53707248
0.56231102
0.59748598
0.6247802
0.58637386
0.47530625
0.35874246
0.28950254
0.27219358
0.27586521
0.25895887
0.20275939
0.12961827
0.06854431
0.031652824
0.015710443
0.010361484
0.0080729311
0.0068216609
0.0060531464
0.0055661319
0.0052449719
0.0050217772
0.0048651114
0.0047554451
0.0046786474
0.0046245316
0.0045862797
0.0045590396
0.0045401217
0.0045268072
0.0045185611
0.0045111197
0.45511669
0.43531283
0.42373147
0.48842764
0.49892254
0.49782742
0.50197341
0.51703601
0.53390738
0.5559638
0.58969322
0.62770435
0.60965264
0.51029598
0.40322829
0.34523753
0.3477628
0.38320978
0.40654577
0.37350455
0.2801
0.16172393
0.073126752
0.029709432
0.014373764
0.009813982
0.0078190382
0.0067192505
0.0060211266
0.0055522164
0.0052357247
0.0050149347
0.0048602257
0.0047521174
0.0046764804
0.0046231843
0.0045854908
0.0045586276
0.0045399738
0.0045268154
0.0045186913
0.0045112813
0.48106976
0.45089117
0.43692671
0.42752505
0.49480068
0.49652152
0.50181071
0.51732567
0.53276809
0.55105635
0.58195818
0.62487488
0.63015296
0.54229211
0.44300756
0.39508332
0.41438207
0.47845656
0.54604855
0.56772558
0.49838608
0.34451823
0.17537103
0.068851826
0.02575231
0.013000199
0.0093415217
0.0076294593
0.0066529004
0.0060065974
0.0055465062
0.0052308735
0.005010689
0.0048568765
0.0047496869
0.0046748242
0.004622123
0.0045848597
0.0045583037
0.0045398754
0.0045268601
0.0045188476
0.0045114596
0.49006224
0.47394751
0.44764699
0.43858739
0.4310532
0.49484007
0.50225197
0.51917012
0.53377175
0.54796106
0.57485106
0.61980327
0.64180566
0.57696488
0.47798578
0.43819719
0.47014097
0.55448636
0.65602719
0.73132108
0.72528732
0.59092963
0.36730951
0.16345835
0.057676859
0.021259408
0.01186885
0.0089676457
0.0074987683
0.0066129312
0.0060016937
0.005546532
0.0052295192
0.0050085767
0.0048547999
0.0047479986
0.0046735871
0.0046212933
0.004584358
0.0045580556
0.0045398178
0.0045269325
0.0045190241
0.0045116489
0.49303993
0.4851724
0.46760111
0.44515264
0.4400733
0.43403658
0.50339383
0.52254492
0.53687546
0.54678475
0.56876185
0.61338274
0.64773771
0.6061929
0.51147109
0.47431259
0.51495737
0.61210099
0.73162963
0.83984896
0.88955031
0.82501415
0.61667213
0.34055385
0.13270642
0.044209777
0.017494231
0.011074315
0.0087028369
0.0074119492
0.0065885889
0.006001589
0.0055505884
0.0052307873
0.0050080866
0.0048537037
0.0047468837
0.0046726753
0.0046206404
0.0045839538
0.0045578654
0.0045397943
0.0045270229
0.0045192139
0.0045118435
0.50537159
0.49142951
0.48059544
0.46227378
0.44332056
0.44121457
0.43623782
0.52738603
0.54185847
0.5474179
0.56410868
0.60615934
0.64959553
0.62912497
0.54413533
0.4990061
0.55002793
0.65358803
0.78056614
0.89768384
0.97247685
0.97370456
0.84330486
0.57338623
0.2780367
0.096776291
0.032385333
0.014938113
0.010537289
0.0085200286
0.0073511983
0.0065721222
0.006003384
0.0055571408
0.0052337553
0.0050087009
0.004853297
0.0047461747
0.0046719963
0.0046201136
0.0045836193
0.0045577146
0.004539794
0.0045271247
0.0045194102
0.0045120385
0.53358591
0.50844237
0.49043545
0.47674144
0.4581217
0.44210059
0.44189078
0.43746591
0.54835187
0.54956692
0.56097817
0.59908386
0.64793582
0.64623854
0.57437193
0.52363379
0.56500363
0.68359985
0.81030617
0.92508363
0.99981279
1.0302813
0.9826144
0.79308751
0.48015921
0.2028256
0.06677857
0.024052631
0.01345744
0.01014428
0.0083872439
0.0073042105
0.0065585348
0.006004786
0.0055646216
0.0052375569
0.0050099427
0.0048533059
0.0047457144
0.0046714665
0.0046196656
0.0045833296
0.0045575885
0.0045398064
0.0045272326
0.0045196054
0.0045122282
0.55577783
0.54112258
0.51280929
0.49020553
0.47389539
0.45525211
0.44145879
0.44203545
0.43758208
0.55279518
0.55926204
0.5926871
0.64411764
0.65776031
0.6006854
0.5476117
0.57863615
0.69105252
0.82870795
0.93508371
1.0003978
1.033885
1.035867
0.94283223
0.69064791
0.36302224
0.13515056
0.045325928
0.019256304
0.012641177
0.0098623368
0.0082831999
0.0072634833
0.0065444998
0.0060039141
0.005571577
0.0052414407
0.0050113894
0.0048534832
0.0047453646
0.0046710009
0.0046192552
0.004583061
0.0045574735
0.0045398229
0.0045273396
0.0045197943
0.0045124073
0.55656147
0.56333144
0.54960808
0.51787263
0.49068204
0.47227236
0.45370781
0.44135167
0.44161457
0.43647022
0.55877629
0.58714783
0.6392209
0.66444398
0.62229688
0.56992415
0.59085081
0.69414079
0.82960298
0.93517715
0.98870773
1.0162246
1.0390476
1.0170734
0.8592652
0.55131068
0.24894462
0.086432724
0.032209063
0.016763892
0.012075391
0.0096471745
0.0081950364
0.0072242803
0.0065277444
0.0059994931
0.0055767381
0.0052447786
0.0050126748
0.0048536188
0.004745021
0.0046705342
0.0046188479
0.0045827943
0.0045573577
0.0045398351
0.00452744
0.004519973
0.0045125721
0.55931456
0.5602794
0.57005979
0.55792768
0.52237961
0.49204249
0.47197768
0.45345659
0.4417121
0.44061077
0.43405808
0.58264073
0.63324734
0.66773072
0.6387976
0.58967338
0.60158357
0.69413998
0.8215016
0.92635793
0.97053399
0.99104836
1.0202645
1.0390918
0.96724974
0.72900529
0.39936327
0.15875263
0.05780946
0.024951467
0.015435265
0.011634486
0.0094725774
0.0081147844
0.0071836294
0.0065070041
0.0059909033
0.005578928
0.0052470572
0.0050135005
0.0048535455
0.0047445961
0.004670015
0.0046184156
0.0045825137
0.0045572311
0.0045398359
0.0045275292
0.0045201378
0.0045127195
0.57944267
0.56062279
0.56337646
0.57508804
0.56236919
0.52701351
0.49434117
0.47300296
0.45439445
0.44242374
0.43900169
0.43044806
0.62627297
0.6680282
0.65021149
0.60624552
0.6107808
0.69207447
0.81045437
0.90757202
0.95103235
0.96488267
0.9940739
1.0322796
1.0227246
0.86890521
0.5639548
0.26457558
0.10059402
0.041249523
0.021166759
0.014638046
0.011293405
0.009322228
0.0080375336
0.0071400237
0.006481885
0.0059780331
0.0055770133
0.0052478909
0.0050136416
0.004853139
0.0047439956
0.0046694053
0.0046179376
0.0045822066
0.0045570856
0.0045398211
0.0045276045
0.0045202857
0.0045128459
0.61928653
0.57800436
0.56217489
0.5652777
0.57790067
0.56676835
0.53157595
0.49751588
0.47523827
0.45630548
0.44332006
0.43681702
0.42573942
0.66414389
0.65715253
0.61917195
0.61830982
0.68870763
0.79762336
0.89056785
0.92972408
0.94231095
0.96719831
1.0129907
1.0416038
0.96418699
0.71822918
0.39560667
0.16778828
0.068761547
0.031875988
0.019163525
0.013998303
0.011016342
0.0091860513
0.0079606059
0.0070929761
0.0064525415
0.0059611234
0.0055707048
0.0052470292
0.0050129443
0.004852341
0.0047431641
0.0046686797
0.0046173993
0.004581864
0.0045569174
0.0045397895
0.0045276629
0.0045204059
0.0045128958
0.65736235
0.61381665
0.57823895
0.56360345
0.56548377
0.57820788
0.5692691
0.53582868
0.50134777
0.47842972
0.45905222
0.44398189
0.43390618
0.41932791
0.65995081
0.62828352
0.62420226
0.68448592
0.78423544
0.87259273
0.91231561
0.91837262
0.94202899
0.98995516
1.0399711
1.0211248
0.8454179
0.53703178
0.25874489
0.10933227
0.050531992
0.026857592
0.018024323
0.01348984
0.010780523
0.0090580136
0.0078827066
0.0070425712
0.0064194264
0.005940641
0.0055606488
0.0052443417
0.0050113217
0.0048510821
0.0047420761
0.004667824
0.0046167914
0.0045814827
0.0045567271
0.0045397379
0.0045276839
0.0045203852
0.0045129201
0.65898636
0.64960598
0.61063845
0.57986779
0.56459384
0.56361938
0.57549527
0.56975434
0.53933674
0.50557226
0.48237327
0.46135987
0.44450559
0.42987167
0.41072806
0.63397257
0.62858621
0.67993736
0.77100208
0.85579444
0.89535583
0.89807099
0.9143011
0.96487641
1.0291014
1.0507235
0.94080717
0.67333256
0.36716786
0.16663759
0.078212709
0.040109407
0.024185955
0.01722639
0.013081699
0.010571239
0.0089345129
0.0078033013
0.0069891637
0.0063831426
0.0059171678
0.0055475188
0.0052397947
0.0050087743
0.0048493096
0.0047407253
0.0046668315
0.0046161121
0.0045810654
0.004556511
0.0045396275
0.0045273588
0.0045203494
0.0045129211
0.63693759
0.65533767
0.64272123
0.60972034
0.58259387
0.56490108
0.55951577
0.56968797
0.56772165
0.54177593
0.50979991
0.48545656
0.46396218
0.4446039
0.42424007
0.39929918
0.63184649
0.67566292
0.75875434
0.84085861
0.88160475
0.88117252
0.8892575
0.93351052
1.0092355
1.0657768
1.0083735
0.79216728
0.48436831
0.24033859
0.11502292
0.060623648
0.034361656
0.022705054
0.016552209
0.012741773
0.010379046
0.0088133834
0.0077222865
0.0069332359
0.006344331
0.0058912996
0.005531949
0.005233436
0.0050053468
0.004847034
0.004739114
0.0046657034
0.004615367
0.0045806092
0.0045562043
0.0045388619
0.004527028
0.0045203018
0.0045128946
0.6345223
0.63813402
0.65022723
0.63763243
0.61098985
0.58611445
0.56437177
0.55307441
0.56054877
0.56282295
0.54268456
0.51219064
0.48838375
0.46632449
0.44363919
0.41627087
0.38414714
0.672314
0.74836407
0.82861406
0.87162458
0.86867874
0.86804749
0.90282269
0.97885431
1.0625507
1.0617716
0.88986426
0.60002767
0.32565031
0.16172855
0.088323639
0.05074247
0.031307975
0.021804295
0.016015204
0.012447523
0.010197822
0.0086933878
0.0076398111
0.0068753313
0.0063036044
0.0058635819
0.005514515
0.005225435
0.0050010154
0.0048442835
0.004737252
0.0046644506
0.0046145576
0.0045800114
0.0045546901
0.0045381155
0.0045267064
0.0045202351
0.0045128399
0.67058889
0.63703
0.63855776
0.64526914
0.63492494
0.61424675
0.59015654
0.56288907
0.54435168
0.54798081
0.5544207
0.53996872
0.51297336
0.49063361
0.46777053
0.44073604
0.40490144
0.36414
0.74067964
0.81961513
0.86600244
0.86136296
0.85101475
0.87507821
0.94545046
1.0430091
1.0961616
0.97638222
0.70832527
0.41746404
0.2198623
0.12244297
0.073879371
0.045296667
0.029698338
0.021147427
0.015581105
0.012183561
0.010023676
0.0085739331
0.0075561856
0.0068159894
0.0062615005
0.0058345047
0.0054957254
0.0052160789
0.0049958426
0.0048410841
0.0047351615
0.0046630878
0.0046135266
0.0045773083
0.0045532407
0.0045374128
0.0045263844
0.0045201463
0.0045127551
0.73644357
0.67093029
0.64027837
0.63920044
0.64193979
0.63488402
0.61930643
0.59447298
0.56042995
0.53361831
0.53213591
0.54102727
0.53344125
0.5120094
0.49135656
0.46728434
0.43459185
0.38866564
0.33783156
0.81425357
0.86435395
0.85916241
0.83837576
0.8503112
0.91325502
1.0141553
1.1048061
1.0657796
0.81149622
0.51217911
0.2857927
0.16233023
0.10291251
0.066606354
0.04265652
0.028861349
0.020609993
0.015217927
0.011939752
0.0098542981
0.0084548861
0.0074718227
0.0067557084
0.0062184775
0.0058045224
0.005476064
0.0052054253
0.0049899052
0.0048374802
0.0047328847
0.0046613785
0.0046088704
0.004574759
0.0045518975
0.0045367392
0.0045260605
0.0045200297
0.0045126386
0.81275154
0.73596999
0.67419681
0.6449419
0.64100694
0.64126808
0.63764644
0.62594742
0.59882387
0.55687205
0.52128392
0.51364975
0.52457735
0.5239142
0.50826132
0.48936772
0.46335608
0.42349131
0.36562715
0.30350084
0.86588032
0.86084553
0.82964529
0.82914951
0.88235677
0.98350019
1.093602
1.1252576
0.94206588
0.6103844
0.35746898
0.20931393
0.13762703
0.09389288
0.063464297
0.041656919
0.028452849
0.020189627
0.014902606
0.011709655
0.0096884941
0.0083364246
0.0073871906
0.0066949907
0.0061749944
0.0057740415
0.0054558982
0.0051935947
0.0049833014
0.0048335677
0.004730069
0.0046535108
0.0046045355
0.0045724249
0.0045506372
0.0045360931
0.0045257274
0.0045198817
0.0045124882
0.86955733
0.8150221
0.739437
0.68056659
0.65152608
0.64478627
0.64377501
0.64317792
0.633868
0.60275242
0.5520716
0.50787188
0.49343028
0.50456315
0.51007881
0.50031837
0.48311528
0.45416027
0.40512067
0.3331724
0.25964968
0.86423399
0.82371866
0.81116174
0.85423323
0.95161439
1.0746037
1.1522405
1.0542201
0.75327394
0.43547812
0.26391954
0.17681475
0.12762204
0.091262339
0.062938214
0.04163788
0.028301234
0.019864575
0.01461917
0.011489399
0.009525817
0.0082189198
0.0073028038
0.0066343436
0.0061314906
0.0057435013
0.005435253
0.0051808024
0.0049762244
0.0048288319
0.0047169295
0.004646279
0.0046006122
0.0045702662
0.0045494585
0.0045354639
0.004525382
0.0045196981
0.0045123028
0.86660471
0.87395356
0.81971279
0.74642036
0.68999555
0.66043585
0.6511235
0.64955902
0.6512408
0.64240828
0.60556181
0.54635179
0.49023881
0.46896704
0.47957814
0.4906854
0.486664
0.47086899
0.43726015
0.3762121
0.28860199
0.20656618
0.81842012
0.79526255
0.82910479
0.92151657
1.0495572
1.1613219
1.1374195
0.89684956
0.55651327
0.32445516
0.2214639
0.16827941
0.12679162
0.092622795
0.064238071
0.042221054
0.028309869
0.019602966
0.014357116
0.011276821
0.0093662809
0.0081028713
0.0072192126
0.0065742078
0.0060882962
0.0057129685
0.0054143068
0.0051674038
0.004967959
0.0048073439
0.0047049871
0.0046398136
0.0045970316
0.0045682803
0.0045483465
0.0045348473
0.0045250195
0.0045194763
0.0045120812
0.81101512
0.86477196
0.8765046
0.82535499
0.75627592
0.70216962
0.67175221
0.66020598
0.6583339
0.66075394
0.65161767
0.60659946
0.5346314
0.46815974
0.43955581
0.44884034
0.46462385
0.46570519
0.45087042
0.40995797
0.33226547
0.23101719
0.14943492
0.77978679
0.8067081
0.89458119
1.0237074
1.155692
1.19583
1.0232721
0.69677044
0.41153103
0.27301589
0.21502012
0.17183042
0.13209586
0.096663761
0.066645278
0.043171099
0.028414775
0.01937952
0.014109693
0.011070826
0.0092101969
0.0079888666
0.007136939
0.0065149101
0.0060457397
0.0056824939
0.00539333
0.0051525208
0.0049343869
0.0047879499
0.0046944326
0.0046339891
0.0045937812
0.0045664421
0.0045472942
0.0045342359
0.004524637
0.0045192133
0.0045118197
0.76311081
0.79874278
0.85654503
0.87410558
0.83061124
0.76797689
0.71643182
0.68523806
0.6717156
0.66934105
0.67269455
0.65742633
0.60278539
0.51877045
0.44052437
0.40450027
0.41185656
0.43097096
0.43642963
0.42044579
0.36740617
0.27068286
0.165851
0.097364582
0.78621174
0.8714498
1.0002415
1.1426768
1.2301746
1.1279167
0.84067249
0.52188597
0.33613774
0.26682584
0.22731977
0.18465749
0.14177289
0.10249506
0.069587004
0.044322213
0.028565813
0.019175952
0.013872624
0.010871011
0.0090580703
0.0078774836
0.007056373
0.0064568457
0.0060036959
0.0056523569
0.0053712362
0.0051039285
0.0049041011
0.0047709413
0.0046850394
0.0046287646
0.0045908184
0.004564738
0.0045462914
0.0045336259
0.0045242309
0.0045189033
0.0045115146
0.76628586
0.74341101
0.78026632
0.83978727
0.86475456
0.83417746
0.78008286
0.73172262
0.70000946
0.68518161
0.68274184
0.68209851
0.66142012
0.59624993
0.4966668
0.4062446
0.3633149
0.36850634
0.38950641
0.3974975
0.37488355
0.30407833
0.19604707
0.10545157
0.058066946
0.85201964
0.98111856
1.1282192
1.2455744
1.2086201
0.97407233
0.64959023
0.417403
0.31792094
0.2907087
0.25239901
0.20465318
0.154704
0.10944484
0.072693258
0.045544599
0.028719553
0.018979409
0.013643293
0.010677407
0.0089104242
0.0077691399
0.0069778464
0.0063998579
0.0059623897
0.0056211661
0.0053063667
0.0050600023
0.0048775468
0.0047559353
0.0046767101
0.0046240652
0.0045881169
0.0045631534
0.0045453321
0.0045330108
0.0045237864
0.004518548
0.0045111667
0.83568081
0.74565683
0.71889987
0.75401615
0.81450499
0.84878039
0.83430209
0.79052328
0.74628399
0.71553841
0.70001494
0.69336198
0.69219973
0.66448563
0.58371135
0.46662556
0.36417806
0.31591706
0.3193792
0.34054652
0.34549726
0.30936001
0.22342655
0.12393329
0.060423306
0.033383406
0.96726296
1.1163366
1.251025
1.2716885
1.0888147
0.78453782
0.51654125
0.38513404
0.34366164
0.3352382
0.28869488
0.23028748
0.16997145
0.11696994
0.075730949
0.04672777
0.028838472
0.018781336
0.013420204
0.010490179
0.0087675796
0.0076640548
0.0069012043
0.0063440724
0.0059199764
0.005533139
0.0052480096
0.0050213173
0.0048541466
0.0047427539
0.0046693111
0.00461984
0.0045856513
0.0045616756
0.004544406
0.004532365
0.0045232987
0.0045181482
0.0045107777
0.95884358
0.82140611
0.72217902
0.68844445
0.71975782
0.78118148
0.82613058
0.82796475
0.79649678
0.7594033
0.7308248
0.7116551
0.70571814
0.70165865
0.66360695
0.56275397
0.42617145
0.3136092
0.26322107
0.26595477
0.28388162
0.27869433
0.22813936
0.14233913
0.069196828
0.033266323
0.019725638
1.1094714
1.2526128
1.3156043
1.1814611
0.91431266
0.63016989
0.46672926
0.41187109
0.40395845
0.3988225
0.33472342
0.26010874
0.18662529
0.12456784
0.078535548
0.04776521
0.028891327
0.018576598
0.013202427
0.010309298
0.0086296448
0.0075618328
0.0068263446
0.0062869892
0.0058000636
0.0054547552
0.0051966341
0.0049870183
0.004833658
0.0047311699
0.0046627433
0.0046160421
0.0045833996
0.0045602891
0.0045434678
0.0045316897
0.0045227677
0.0045177054
0.0045103498
1.1087247
0.95556332
0.80664402
0.69544298
0.65170181
0.67730702
0.73900088
0.79340962
0.81238048
0.79738151
0.76922841
0.74087186
0.72325431
0.71841874
0.70938762
0.65565615
0.52934995
0.37285473
0.25520034
0.20784309
0.21036507
0.2203609
0.20215718
0.14607391
0.078815127
0.036389468
0.019075737
0.012396324
1.2547905
1.3449551
1.2602252
1.0284592
0.75081745
0.56169367
0.49337229
0.48846762
0.49566396
0.47987353
0.38888785
0.29248586
0.20328674
0.13158296
0.080959937
0.048527206
0.028854067
0.018362363
0.012989078
0.010134501
0.0084953153
0.0074619381
0.0067497148
0.0061216359
0.0056949223
0.0053863057
0.0051511855
0.0049568081
0.0048157453
0.0047210052
0.0046569194
0.00461263
0.0045813362
0.0045589194
0.0045425191
0.0045309846
0.0045221947
0.0045172221
0.004509886
1.2600807
1.114289
0.95465484
0.79166909
0.66508632
0.60901726
0.62707171
0.68761667
0.75028517
0.78728175
0.79001235
0.77099033
0.74771899
0.73456175
0.73002077
0.71252018
0.63589836
0.47775253
0.30570161
0.19254664
0.15418587
0.15549526
0.1549263
0.12831506
0.080920314
0.040175504
0.019835961
0.011849626
0.0086030092
1.3651988
1.3239835
1.1217406
0.8691559
0.66613897
0.58622062
0.58692508
0.6129281
0.62195104
0.57802493
0.44885745
0.32544023
0.21822661
0.13730232
0.082764607
0.048897562
0.028719795
0.018136645
0.012779073
0.0099616659
0.0083629667
0.0073589215
0.0065153315
0.0059800077
0.0056042421
0.0053260932
0.0051110942
0.0049302501
0.0048001387
0.0047121014
0.0046517644
0.0046095614
0.0045793406
0.0045575762
0.0045415583
0.0045302501
0.004521582
0.0045167013
0.0045093897
1.3802265
1.2693816
1.1249272
0.95551995
0.77544092
0.63124864
0.56170368
0.57097335
0.62857705
0.69726298
0.74910169
0.76996227
0.7653663
0.75268985
0.74402744
0.73840726
0.70660879
0.59421987
0.40356773
0.22798232
0.13303514
0.10708205
0.10554836
0.096708094
0.071203954
0.040885621
0.020935497
0.011958107
0.0083251355
0.0067107667
1.3698709
1.1980976
0.9751437
0.77413707
0.68639711
0.69469271
0.74374226
0.78747397
0.78489187
0.68980983
0.51106372
0.35647743
0.23186687
0.1421064
0.083887453
0.048873571
0.028508344
0.017897153
0.012560045
0.0097866933
0.0082233327
0.0070080911
0.0063223504
0.0058598757
0.0055252276
0.0052732177
0.0050757151
0.0049070161
0.0047865875
0.0047043207
0.0046472027
0.0046066431
0.0045774282
0.0045562554
0.0045405842
0.0045294883
0.0045209324
0.0045161468
0.0045088649
1.4013689
1.3918268
1.2847032
1.1401838
0.95638265
0.75699778
0.59447657
0.51164653
0.51135653
0.56402791
0.63501692
0.69830108
0.74349256
0.75649636
0.75344899
0.74879758
0.73895682
0.68107952
0.52141907
0.30709105
0.15094261
0.084439976
0.070086155
0.065312352
0.054167258
0.036477337
0.021008392
0.012232001
0.0083293711
0.0065951426
0.0057577719
1.2587891
1.062314
0.87878211
0.78858877
0.80534226
0.87885676
0.9612304
1.0103976
0.98052992
0.8094395
0.57266674
0.38556263
0.24402764
0.14617877
0.084651204
0.048627664
0.028220117
0.017608526
0.012322857
0.0095921599
0.0076487002
0.0067385529
0.0061625949
0.0057564392
0.0054563992
0.005226735
0.0050445211
0.0048868053
0.004774867
0.0046975295
0.0046429182
0.004603903
0.0045755907
0.0045549537
0.0045395983