/*--------------------------------*- C++ -*----------------------------------*\
  =========                 |
  \\      /  F ield         | OpenFOAM: The Open Source CFD Toolbox
   \\    /   O peration     | Website:  https://openfoam.org
    \\  /    A nd           | Version:  8
     \\/     M anipulation  |
\*---------------------------------------------------------------------------*/
FoamFile
{
    version     2.0;
    format      ascii;
    class       volScalarField;
    location    "300.966377299864348";
    object      p;
}
// * * * * * * * * * * * * * * * * * * * * * * * * * * * * * * * * * * * * * //

dimensions      [0 2 -2 0 0 0 0];

internalField   nonuniform List<scalar> 
9200
(
0.00092571919
0.00094893438
0.00221255
0.00097464003
0.0022576735
0.0036290817
0.0010267495
0.0023105108
0.003697309
0.004886147
0.0011013134
0.0024028163
0.0037847502
0.0049685964
0.0061058851
0.0012125893
0.0025219144
0.0039277705
0.0050788408
0.0062000551
0.0072231961
0.0013728026
0.0026814591
0.0041110007
0.0052532801
0.0063280643
0.0073254363
0.0082595349
0.0016028293
0.0028936798
0.0043462501
0.0054740499
0.0065240222
0.0074666017
0.0083677777
0.0092110302
0.0019372635
0.003184011
0.0046476356
0.0057488615
0.006765265
0.0076786086
0.0085186228
0.0093235121
0.010083762
0.0024270628
0.0035767418
0.0050353682
0.0060779136
0.0070519825
0.0079370281
0.0087420308
0.0094822667
0.010199274
0.010881134
0.0030853872
0.0041028128
0.0055225001
0.0064655529
0.0073792907
0.0082349396
0.0090124719
0.0097157529
0.010364842
0.010999057
0.011606776
0.0039169673
0.004763148
0.0061250391
0.0069282319
0.0077485943
0.0085655478
0.0093183879
0.0099965757
0.010607728
0.011170443
0.011725993
0.012265426
0.0048758437
0.0055646142
0.006853997
0.0074789763
0.0081558276
0.0089183157
0.0096468416
0.010313963
0.010900864
0.011421339
0.01190196
0.012384046
0.012862983
0.0059944525
0.0065005104
0.0077410372
0.0081198187
0.0085378256
0.0092630413
0.0099755538
0.010651612
0.011236232
0.011728168
0.012159257
0.012562721
0.012978969
0.013404946
0.0072620265
0.0076210754
0.0088362975
0.008874959
0.0089645073
0.0095655832
0.010279514
0.010987151
0.011599102
0.012083665
0.012477985
0.012823428
0.013157578
0.01351663
0.013896611
0.0086044045
0.0090105268
0.010130222
0.0097632104
0.0094406621
0.0097988923
0.010573207
0.011304762
0.011970629
0.012478397
0.012852097
0.013149505
0.013417748
0.013692187
0.01400222
0.014343157
0.0099708578
0.010760126
0.011626342
0.01080668
0.0099492076
0.0099335325
0.010764482
0.011603213
0.012349695
0.012904472
0.013278866
0.013536998
0.013745823
0.013947145
0.014171989
0.01444105
0.01474965
0.011242275
0.012709231
0.013366896
0.012016117
0.01049328
0.0099808045
0.0107983
0.011825683
0.012718572
0.013360675
0.013754642
0.013986432
0.014136592
0.014271629
0.014417538
0.014602461
0.014838296
0.015121007
0.011918847
0.014702741
0.015318821
0.013397719
0.011081818
0.0098946244
0.010630179
0.011920618
0.01304241
0.013831616
0.014274274
0.014494017
0.014594505
0.014658289
0.014732562
0.014834758
0.014988941
0.015198885
0.015461861
0.011752903
0.016761797
0.017419758
0.0149432
0.011714314
0.0096182407
0.010193847
0.011831087
0.013292013
0.01430674
0.014837558
0.015057297
0.015118308
0.015109877
0.015108793
0.015135571
0.015204483
0.015336419
0.015527506
0.015776569
0.01109508
0.018838829
0.019755461
0.016618627
0.012299053
0.0091065964
0.0094042498
0.011486571
0.013431654
0.014774011
0.015449498
0.015682915
0.015701636
0.015628593
0.015547252
0.015495305
0.015486994
0.015531915
0.015649702
0.015828681
0.016069216
0.010408097
0.020715816
0.022305523
0.018403337
0.012809059
0.0082081903
0.0081254086
0.010831423
0.013424052
0.015225741
0.016116657
0.016381242
0.016348866
0.016206887
0.016044761
0.015916433
0.015825924
0.01579235
0.015822083
0.015933513
0.016106661
0.016343536
0.009734647
0.02210659
0.02494287
0.020217239
0.013287314
0.0067924009
0.0062482263
0.0097469902
0.01320919
0.015657593
0.016850232
0.017164496
0.017072766
0.016840258
0.016596447
0.016387675
0.016224843
0.016106882
0.016057005
0.016079862
0.016192117
0.016365251
0.016602893
0.0090555687
0.023044707
0.027437379
0.021926995
0.013703232
0.0047802431
0.0035907862
0.0082161571
0.012656667
0.016034564
0.017654246
0.018046469
0.017884456
0.017540596
0.017193509
0.01690177
0.016670608
0.016480913
0.016344746
0.016286215
0.016309387
0.016429247
0.016607953
0.016850454
0.0083622134
0.023663306
0.02956309
0.02342262
0.014014168
0.0020560625
9.4830765e-06
0.0061865321
0.011751331
0.016279731
0.018525128
0.019038701
0.018796893
0.018314084
0.017838845
0.017451996
0.0171496
0.016902051
0.016691035
0.016545349
0.016483397
0.016514325
0.016648674
0.01683814
0.017089002
0.0076447262
0.023886511
0.031166383
0.024564208
0.014176513
-0.0014940236
-0.0045547181
0.0034673955
0.01039727
0.016433223
0.01942813
0.020149366
0.019820766
0.019167063
0.018529978
0.018030896
0.017655334
0.017354879
0.017088122
0.016861668
0.016706477
0.016651426
0.016698881
0.016854147
0.017058815
0.017320994
0.0069148299
0.023671713
0.032137972
0.025258616
0.013904596
-0.0061175724
-0.010124796
-7.0497534e-05
0.0082720859
0.016451251
0.020410927
0.021363225
0.020962929
0.020097518
0.019262437
0.018624994
0.018174562
0.017829777
0.017523282
0.017232401
0.016991227
0.016832969
0.01679495
0.016867054
0.017048906
0.017272583
0.017548615
0.0061929937
0.02301915
0.032445437
0.025417894
0.013196187
-0.011216562
-0.016761228
-0.0045846901
0.0051201269
0.016064492
0.021547706
0.022639128
0.022215462
0.021114901
0.020027669
0.019216298
0.018682729
0.018309943
0.017983929
0.017653115
0.0173352
0.017079972
0.016931718
0.016918684
0.017022338
0.017235866
0.017481834
0.017773626
0.0054990528
0.021942425
0.032089259
0.024990223
0.01184445
-0.016328195
-0.024658653
-0.010168373
0.00076984054
0.015035259
0.022701184
0.024056911
0.023521543
0.022200044
0.020814531
0.019782533
0.019148052
0.018764091
0.018452486
0.018112231
0.017740127
0.017393253
0.017132919
0.017004914
0.017026055
0.017168233
0.017417713
0.017688727
0.017997461
0.0047906663
0.020494546
0.031100225
0.023986257
0.0097478211
-0.021469453
-0.033650187
-0.018218172
-0.0054402743
0.013258818
0.0236993
0.025550308
0.024862455
0.023332842
0.021602638
0.020296558
0.019532485
0.01915061
0.018895662
0.018594339
0.018201975
0.017780449
0.017405217
0.01715169
0.017055732
0.017121233
0.01730784
0.017596895
0.017895035
0.018221261
0.0039208861
0.018746473
0.029548482
0.022454877
0.0072962687
-0.026378533
-0.042665448
-0.027898961
-0.012331071
0.010678905
0.02446442
0.026872647
0.026244168
0.024448365
0.022362983
0.020726273
0.019790678
0.01941841
0.019269383
0.019068072
0.018713596
0.018243153
0.017764802
0.017370896
0.017140082
0.017089387
0.017208039
0.017444193
0.017775806
0.018102017
0.018445872
0.0029099483
0.01646369
0.02756055
0.020427486
0.0047481938
-0.031102626
-0.051348698
-0.037709513
-0.018966586
0.0074491463
0.024927799
0.027871608
0.027518796
0.025507012
0.023044259
0.021022117
0.019861438
0.019498573
0.019518905
0.019491
0.019252164
0.018784446
0.018220177
0.017685559
0.017294242
0.017104067
0.017110771
0.01728955
0.017580907
0.017956005
0.018310563
0.018671904
0.0018671267
0.013794573
0.02468651
0.018020195
0.0021697169
-0.035786897
-0.0597316
-0.047401785
-0.025867045
0.0036884113
0.024707153
0.028479545
0.028422977
0.026455719
0.023569298
0.021121584
0.019664453
0.019298499
0.01955926
0.019834677
0.019792064
0.01939346
0.018779125
0.018114528
0.017545817
0.017181518
0.017049585
0.017124572
0.017369322
0.017719376
0.01813825
0.0185214
0.01889975
0.00083636798
0.010733176
0.021019302
0.015071393
-0.00044737019
-0.040225203
-0.06740381
-0.0565049
-0.032888361
-0.00030714356
0.02330954
0.028763025
0.028833143
0.027125068
0.023877348
0.020948803
0.019118632
0.018716463
0.019288311
0.020001465
0.020300189
0.020059085
0.019444476
0.018666493
0.01792013
0.01735348
0.017040995
0.016982479
0.017134888
0.017451213
0.017860701
0.018324052
0.018735071
0.019129618
-0.00015615822
0.0073196857
0.016579306
0.011823522
-0.0026402978
-0.044397664
-0.074150348
-0.06484047
-0.039582326
-0.0045998182
0.020791032
0.028755642
0.028676034
0.027350116
0.023887702
0.020416483
0.018137568
0.017634052
0.01858028
0.019886328
0.020712722
0.020764036
0.020219247
0.019356875
0.01843349
0.017644048
0.017117448
0.016880674
0.016908787
0.017146034
0.017538274
0.018007473
0.018514271
0.018951924
0.019361559
-0.0011020473
0.0035662582
0.01142317
0.0080614345
-0.0047028826
-0.047156433
-0.080087121
-0.07259174
-0.045819276
-0.0090995428
0.01779128
0.027982176
0.027906332
0.026996894
0.023468913
0.019450079
0.016628846
0.015895368
0.017262286
0.019368599
0.020949688
0.021475395
0.021103843
0.020202392
0.019109483
0.018084344
0.017300917
0.016847764
0.016703918
0.016834019
0.01716207
0.017632506
0.018161198
0.018709491
0.01917211
0.019595488
-0.0020482945
-0.00049614823
0.0056217056
0.0037193843
-0.0071128171
-0.049472185
-0.084348079
-0.079656664
-0.051507634
-0.013704205
0.014322919
0.026240218
0.026581458
0.0259487
0.022518628
0.017914806
0.014469194
0.013329496
0.015115707
0.018264642
0.020907484
0.022142383
0.022089525
0.021218895
0.01997384
0.018705011
0.017634098
0.016903791
0.016549267
0.016518337
0.016759934
0.017186597
0.01773603
0.018322363
0.018909838
0.01939561
0.019831211
-0.0030251104
-0.0047923456
-0.00075509572
-0.0010981134
-0.0098458742
-0.051329774
-0.088447699
-0.085576215
-0.05618411
-0.018163537
0.010387356
0.023408956
0.02444281
0.024132575
0.020950672
0.015726687
0.011460553
0.0096553968
0.011873795
0.016330031
0.020436373
0.022695785
0.023156272
0.022412332
0.021054033
0.019532532
0.018155226
0.017105612
0.016470335
0.016239808
0.016340582
0.01669771
0.017223686
0.017850172
0.018491115
0.019115201
0.019622222
0.020068446
-0.0040157188
-0.0091758378
-0.007596021
-0.0062994631
-0.012833086
-0.052629452
-0.091087415
-0.091867762
-0.060382545
-0.022360318
0.0063031493
0.019583188
0.021469805
0.021499852
0.018698133
0.01292311
0.0075046715
0.0045900596
0.0070539818
0.013203388
0.019329969
0.023030246
0.024266215
0.023784829
0.022367253
0.02060119
0.018886103
0.017489348
0.016517733
0.016014267
0.01593157
0.016175681
0.016654051
0.017277629
0.017976731
0.018668328
0.019325388
0.019851604
0.02030683
-0.0049542973
-0.013585789
-0.01473428
-0.01178987
-0.015963405
-0.053418237
-0.09225794
-0.096553411
-0.065509921
-0.027784395
0.0020837409
0.015178561
0.017693551
0.018054353
0.01574449
0.0095150489
0.0026763617
-0.0022144757
0.00015573625
0.008449758
0.017201201
0.022964203
0.025354537
0.025316924
0.023922498
0.021935789
0.019869658
0.018057726
0.016723133
0.015889784
0.015551068
0.015633174
0.016026939
0.01663016
0.017350245
0.018117006
0.01885502
0.019540464
0.020083375
0.020545935
-0.017895684
-0.0058877799
-0.021981375
-0.017465814
-0.019143872
-0.053605125
-0.091944402
-0.099620823
-0.069890279
-0.03384053
-0.0046117782
0.010526303
0.013095284
0.01386719
0.012104709
0.0054705239
-0.0031053968
-0.011255699
-0.0095396853
0.0015422018
0.01379272
0.02223654
0.02628529
0.026966849
0.025711595
0.023545071
0.021129284
0.018888286
0.017107519
0.015896257
0.015240422
0.015092116
0.015351147
0.015898375
0.016625652
0.017439923
0.018270601
0.019050248
0.019760876
0.020317088
0.0207853
-0.029139806
-0.021996002
-0.0068120877
-0.023261522
-0.022308961
-0.053073541
-0.090081948
-0.10086195
-0.073200835
-0.03990998
-0.011430662
0.0030387942
0.0084906523
0.0089438242
0.0078393212
0.00078473558
-0.009910199
-0.022812096
-0.022314693
-0.007969024
0.0084668564
0.020606487
0.026873305
0.028636364
0.027703214
0.025426074
0.022675453
0.019984043
0.017717896
0.016058017
0.015028033
0.014586883
0.01464877
0.015093573
0.015795398
0.01664237
0.017545402
0.018436332
0.019252804
0.019985925
0.020552434
0.021024469
-0.028864844
-0.035981892
-0.02578449
-0.0077121469
-0.02541787
-0.051742499
-0.086648728
-0.10018094
-0.075037588
-0.045570603
-0.019012501
-0.004551329
0.001315956
0.0037316795
0.0029613387
-0.0044247164
-0.017766945
-0.035779138
-0.036997059
-0.019418587
0.00074010339
0.017384695
0.02690968
0.030149024
0.029821042
0.027552542
0.024500234
0.021359751
0.018572429
0.016408172
0.014938234
0.014142508
0.013946699
0.014232942
0.014867465
0.015721646
0.016683181
0.017667356
0.01861311
0.019462834
0.020213735
0.020789321
0.021263065
-0.028378902
-0.033983238
-0.042295557
-0.029200554
-0.0085715981
-0.049533147
-0.081714652
-0.097503028
-0.075300896
-0.050622596
-0.02679487
-0.013729172
-0.0048734215
-0.0031006358
-0.0021384095
-0.010073133
-0.026704889
-0.049334033
-0.05341178
-0.032824482
-0.0092428955
0.012582001
0.026032174
0.031367306
0.031895581
0.029857834
0.026578498
0.023004742
0.01968058
0.016965448
0.014995853
0.013780939
0.013265641
0.013336257
0.013854029
0.014677315
0.015677656
0.016747321
0.017806001
0.018800206
0.019679585
0.020443755
0.021026845
0.021500808
-0.046437075
-0.031096654
-0.038556185
-0.047924306
-0.032170018
-0.0093773254
-0.075448131
-0.092856059
-0.074165767
-0.0546679
-0.034690727
-0.023531937
-0.013486285
-0.0092617879
-0.0080370698
-0.015990391
-0.035924913
-0.063140244
-0.071017669
-0.049099231
-0.021964969
0.0060306122
0.02418853
0.032080032
0.033792416
0.032202621
0.028851094
0.024887251
0.021038161
0.017737344
0.01521565
0.013521224
0.012622988
0.012419486
0.012768318
0.013518866
0.014526324
0.015665219
0.016834614
0.017960654
0.018997205
0.019901469
0.02067631
0.021263341
0.021736831
-0.068105221
-0.042518155
-0.033246218
-0.042524004
-0.052724799
-0.034641404
-0.010117335
-0.086382887
-0.071753564
-0.05729859
-0.042453957
-0.033856408
-0.023853371
-0.017081438
-0.013095226
-0.021380688
-0.04572915
-0.076433916
-0.088561613
-0.067343425
-0.036802722
-0.003079411
0.02062842
0.032019098
0.035360467
0.034384137
0.031202777
0.026952132
0.022607419
0.018718484
0.015602449
0.0133748
0.012032698
0.011494943
0.01162106
0.012252813
0.013232841
0.01441683
0.015684278
0.016944825
0.018130564
0.019203326
0.02012765
0.020910501
0.021498424
0.021969882
-0.078274992
-0.059844119
-0.038012342
-0.034561517
-0.045791277
-0.056584285
-0.036577347
-0.010778754
-0.06814535
-0.058352549
-0.04981346
-0.044526565
-0.035613453
-0.027009741
-0.019249605
-0.025615781
-0.052364347
-0.089940238
-0.10545571
-0.086418443
-0.052399817
-0.014433692
0.014715852
0.03055978
0.036245421
0.036306118
0.033420626
0.029086863
0.024325448
0.019874312
0.016145566
0.01334032
0.011501547
0.010571447
0.010419624
0.010884706
0.011797773
0.012999478
0.01434999
0.015735863
0.017077261
0.018314767
0.019417463
0.020357358
0.021145233
0.021732638
0.022200012
-0.0634335
-0.068760514
-0.05109347
-0.033019869
-0.035085603
-0.048228774
-0.059434893
-0.037969151
-0.011348659
-0.057789061
-0.056579784
-0.055528877
-0.048587712
-0.038497452
-0.027035066
-0.030491106
-0.057209685
-0.097552372
-0.12278818
-0.10598659
-0.068207254
-0.027337913
0.0072003823
0.027002316
0.035948217
0.037699047
0.035350653
0.03113553
0.026094809
0.021139324
0.016812627
0.013404978
0.011025981
0.0096504848
0.0091677247
0.0094166062
0.010221768
0.011408695
0.012820704
0.014324013
0.015818307
0.017230694
0.018511866
0.019638493
0.020589877
0.021380184
0.021965593
0.022427655
-0.055632754
-0.057782603
-0.058538408
-0.042026185
-0.027839134
-0.034888784
-0.049773733
-0.061252645
-0.038824329
-0.01181464
-0.062616464
-0.0668565
-0.0625418
-0.051331441
-0.036243012
-0.036231151
-0.06169563
-0.10538211
-0.13438495
-0.12810153
-0.085463933
-0.041686132
-0.0017988564
0.021707247
0.033871778
0.038084776
0.036856751
0.03289511
0.027783782
0.022427326
0.017545709
0.013536042
0.01058721
0.0087245878
0.0078618873
0.0078476296
0.0085019224
0.0096403027
0.011088649
0.012697686
0.0143385
0.015930316
0.01740332
0.018720397
0.019865719
0.020825047
0.021614923
0.022196292
0.022652284
-0.067718968
-0.052310922
-0.051184711
-0.048212925
-0.032852725
-0.022670497
-0.033978101
-0.050443873
-0.06205019
-0.039144923
-0.012159263
-0.078127871
-0.077139007
-0.065243862
-0.04658939
-0.042677074
-0.066183464
-0.11130947
-0.15019597
-0.14592786
-0.10401765
-0.057137365
-0.012185769
0.014810972
0.030018353
0.037039903
0.037586357
0.034190381
0.029223796
0.023624218
0.018264709
0.013680327
0.010151954
0.0077719321
0.0064900343
0.0061695639
0.0066328131
0.0076866884
0.0091452107
0.010839176
0.012630755
0.014396046
0.016069561
0.017593302
0.018939708
0.0200991
0.021062243
0.021847998
0.022423637
0.02287384
-0.088635929
-0.071689451
-0.048459565
-0.043811128
-0.038038829
-0.023874159
-0.017525377
-0.032414459
-0.050302776
-0.061872669
-0.038984153
-0.012313429
-0.091998992
-0.07979444
-0.057787155
-0.04940122
-0.071035416
-0.11573881
-0.16130648
-0.17267714
-0.12181788
-0.0712062
-0.022937997
0.0067343151
0.024774737
0.034293853
0.037108827
0.03486133
0.030197645
0.024582776
0.018867918
0.013764316
0.009669715
0.0067570423
0.005027523
0.0043669021
0.0046020982
0.0055382971
0.0069779921
0.0087390922
0.010660766
0.012613666
0.014490495
0.016233743
0.017800081
0.01917001
0.020337533
0.021298629
0.022077321
0.022648047
0.023103765
-0.10663432
-0.098139159
-0.074223288
-0.044248462
-0.036301403
-0.028191327
-0.015300319
-0.01240832
-0.030269379
-0.049459627
-0.06070528
-0.038505111
-0.012248068
-0.094642808
-0.069429629
-0.056168831
-0.07587052
-0.11958507
-0.16921242
-0.19168
-0.14730053
-0.084833995
-0.033351297
-0.0015130274
0.017832868
0.029918617
0.035116927
0.03457267
0.030534202
0.025126388
0.01922721
0.013696806
0.0090719307
0.005629687
0.0034361694
0.0024112708
0.0023911291
0.0031794019
0.0045738066
0.0063799898
0.0084227067
0.010551778
0.012646552
0.01461915
0.01642246
0.018024203
0.019409418
0.020576153
0.021530683
0.022304601
0.022884316
0.023345105
-0.10937824
-0.1205935
-0.10606585
-0.075404836
-0.039732436
-0.028926218
-0.018936911
-0.0072414422
-0.0074105702
-0.027595939
-0.047911346
-0.059042744
-0.037539735
-0.012135803
-0.080765209
-0.062827369
-0.080376846
-0.12243591
-0.17422755
-0.20788447
-0.17100359
-0.10286892
-0.047475386
-0.0099461873
0.0098363785
0.024183297
0.031445627
0.033036145
0.030086615
0.025059935
0.019203619
0.013368568
0.0082761629
0.004323649
0.001664293
0.00026164146
-3.1456924e-05
0.00058838937
0.0019142206
0.003745312
0.005894325
0.0081948094
0.010507807
0.0127261
0.014782047
0.016636739
0.0182627
0.019650249
0.02080983
0.021762872
0.022550896
0.023131022
0.023591937
-0.090882583
-0.12337447
-0.13283389
-0.11230326
-0.075538797
-0.035248738
-0.021797447
-0.010485521
0.00017453374
-0.0025942787
-0.024607539
-0.046097824
-0.056570117
-0.036145167
-0.012033353
-0.069010235
-0.084356489
-0.12355145
-0.17591312
-0.21876624
-0.19269151
-0.12173604
-0.063866406
-0.023452436
0.0017895876
0.017613904
0.026274883
0.029862503
0.028613518
0.024232669
0.018639375
0.012661878
0.0071852028
0.0027610809
-0.0003547961
-0.0021358302
-0.002708606
-0.002267725
-0.001024733
0.00081450132
0.0030556515
0.0055190945
0.0080514323
0.010524181
0.012852542
0.014980909
0.016872202
0.018504193
0.019885483
0.021047102
0.022027767
0.022804755
0.02338486
0.023843709
-0.074706165
-0.099202058
-0.13535563
-0.14275456
-0.11660097
-0.074637541
-0.031077715
-0.015047132
-0.0029680239
0.0068108005
0.0018310187
-0.021820829
-0.043763278
-0.053388744
-0.034225368
-0.011866534
-0.087492732
-0.12248561
-0.17383867
-0.22323851
-0.21034499
-0.13967642
-0.081713813
-0.036355197
-0.011782788
0.010560494
0.019760786
0.02504496
0.025818183
0.022529255
0.017375376
0.01145546
0.0057000069
0.00085111182
-0.0026989051
-0.0048502418
-0.0056963669
-0.0054320337
-0.00427564
-0.0024375621
-0.00011575515
0.0025030516
0.0052487213
0.0079868504
0.010602273
0.013028431
0.015209656
0.017112709
0.018739367
0.020129388
0.021336209
0.022297485
0.02306796
0.023644343
0.024100508
-0.0887465
-0.079933037
-0.10460165
-0.14411357
-0.14966976
-0.11885408
-0.07278342
-0.027357584
-0.0089737798
0.0032864076
0.012357426
0.0058784831
-0.019444537
-0.040839954
-0.049428311
-0.031778973
-0.011650495
-0.11912967
-0.1680336
-0.22071468
-0.22130145
-0.15563263
-0.098946153
-0.05192636
-0.022564562
-0.0036600744
0.01373933
0.018285297
0.021553734
0.019769239
0.015305072
0.0096291902
0.0037152958
-0.0014948496
-0.0054588169
-0.0079631763
-0.0090667357
-0.0089616434
-0.0078804473
-0.0060419273
-0.0036449416
-0.00087825609
0.0020801446
0.0050790492
0.0080009819
0.01074605
0.013245373
0.015446078
0.017346112
0.018990118
0.020451683
0.021626855
0.022579329
0.023337531
0.023909971
0.024362039
-0.11367578
-0.087611367
-0.083828732
-0.10756454
-0.14888145
-0.15314665
-0.11907637
-0.070333683
-0.024185169
-0.0040195438
0.0082738216
0.017281881
0.0085859253
-0.016914182
-0.037367892
-0.044696455
-0.028843703
-0.01140549
-0.15886066
-0.2115639
-0.22384399
-0.1694287
-0.11385085
-0.067148091
-0.036821443
-0.014873992
0.0022521711
0.011959098
0.015524549
0.015853059
0.0123268
0.0070667668
0.0011429921
-0.0043746264
-0.0087216416
-0.011570683
-0.012906977
-0.012930161
-0.011894724
-0.010037755
-0.0075616301
-0.0046506381
-0.001482578
0.0017806144
0.0050130521
0.0081004326
0.010944591
0.013473323
0.015674505
0.017604241
0.019354615
0.020771867
0.021933322
0.022868055
0.023614242
0.024181035
0.024628173
-0.14691109
-0.10607662
-0.084481106
-0.085414613
-0.10861855
-0.14959761
-0.15303109
-0.11750722
-0.067493834
-0.021314242
2.1117198e-06
0.013038836
0.020539737
0.011017429
-0.014253274
-0.033325301
-0.039333242
-0.025575296
-0.011154333
-0.19691777
-0.21811208
-0.17817428
-0.12407835
-0.08148833
-0.051201511
-0.029216476
-0.0080051182
0.0012544221
0.0087362671
0.010480185
0.0084307872
0.0037040804
-0.0020947379
-0.0078580061
-0.012588878
-0.015767212
-0.017321559
-0.017429573
-0.016390508
-0.01447572
-0.011899472
-0.0088405836
-0.0054668188
-0.0019370196
0.0016105491
0.005056726
0.0082718398
0.01115812
0.013692216
0.015939612
0.018022497
0.019712825
0.021112472
0.022246699
0.023164887
0.023897025
0.024457473
0.024898642
-0.17826224
-0.13238565
-0.096850242
-0.079206923
-0.084210201
-0.10761602
-0.14642134
-0.14946038
-0.11436731
-0.064040971
-0.018428396
0.0043171183
0.016511776
0.023472406
0.013221148
-0.011529157
-0.028789471
-0.033626362
-0.02223854
-0.010851761
-0.20506373
-0.17900887
-0.12976445
-0.093509889
-0.065668994
-0.043972711
-0.023844606
-0.0070989217
-0.0015873938
0.0043847421
0.003399625
-0.00043555841
-0.0060679332
-0.012024243
-0.017123646
-0.020668228
-0.022419222
-0.022572512
-0.021460393
-0.019421703
-0.01670137
-0.013475115
-0.0098942675
-0.0061019438
-0.0022327173
0.0015805119
0.0051906757
0.0084629677
0.011361179
0.0139634
0.016425097
0.018429327
0.020097425
0.021459603
0.022569233
0.023468479
0.024185898
0.024738793
0.025173229
-0.18626838
-0.1567209
-0.11643217
-0.086275001
-0.072162258
-0.079872878
-0.10409665
-0.1397259
-0.1428405
-0.10941218
-0.060199809
-0.014621265
0.0081280209
0.019595006
0.025816605
0.01506841
-0.0088126457
-0.023833277
-0.027612044
-0.018938085
-0.010320996
-0.17235088
-0.13148862
-0.10243769
-0.079133696
-0.059317028
-0.041222865
-0.020831543
-0.010940272
-0.0043251544
-0.0020280264
-0.0055346597
-0.010770439
-0.016899216
-0.022431389
-0.026345903
-0.028337834
-0.028485005
-0.027220685
-0.024962237
-0.022022105
-0.018587426
-0.014786479
-0.010733955
-0.006545353
-0.0023556777
0.0016646673
0.0053490317
0.008642033
0.011636732
0.014532445
0.01689257
0.018870311
0.020487763
0.021816989
0.022899276
0.023778836
0.02448014
0.025024681
0.025451687
-0.15924271
-0.16360245
-0.13430542
-0.099617724
-0.074861388
-0.063637524
-0.072938143
-0.097853271
-0.13000645
-0.13382632
-0.10264756
-0.055917402
-0.0096604341
0.011654234
0.021985219
0.02737297
0.016542085
-0.0061636322
-0.018594505
-0.02153245
-0.015504263
-0.0094548462
-0.12873911
-0.10732401
-0.090647709
-0.074602809
-0.058879797
-0.038559617
-0.023842877
-0.012470043
-0.0090501591
-0.010913103
-0.016299559
-0.022510339
-0.028494907
-0.032941759
-0.035172393
-0.035330608
-0.033811293
-0.031208783
-0.027934334
-0.024217092
-0.020165651
-0.015849911
-0.011347454
-0.0067813582
-0.0023392545
0.0017772516
0.0054935295
0.0089192796
0.012308678
0.015074694
0.017404177
0.019315495
0.02088913
0.022182384
0.023236684
0.024095061
0.024779366
0.025314731
0.025733802
-0.121801
-0.1416801
-0.13982799
-0.11197825
-0.082782585
-0.062993091
-0.054116089
-0.064466987
-0.089616649
-0.11807279
-0.12138103
-0.096642336
-0.049153561
-0.0049768182
0.014656854
0.023670239
0.028068808
0.017658068
-0.0036840776
-0.013366946
-0.016139882
-0.012271215
-0.0085164982
-0.10792495
-0.099264551
-0.08892621
-0.077206693
-0.0604181
-0.040999312
-0.025114201
-0.014702219
-0.017003268
-0.022127257
-0.028870249
-0.035407774
-0.040409062
-0.043109783
-0.043238312
-0.041416202
-0.038304354
-0.034533708
-0.030415795
-0.026053718
-0.021460914
-0.016651993
-0.011715139
-0.0068502764
-0.0022886655
0.0018735995
0.005768142
0.0097165894
0.012941937
0.015673711
0.01791752
0.019772215
0.021298988
0.022555708
0.023580442
0.024416684
0.02508305
0.025608809
0.026019202
-0.10563893
-0.11142311
-0.12235947
-0.11629164
-0.090742794
-0.066526222
-0.051034273
-0.044129438
-0.055115526
-0.080350786
-0.10414623
-0.1113187
-0.087114619
-0.042281458
-0.00081296474
0.0170668
0.024650671
0.027879902
0.01838299
-0.00121615
-0.0087832461
-0.011865627
-0.0094357499
-0.0073328436
-0.10442707
-0.10142464
-0.095561038
-0.084055313
-0.062791392
-0.043478067
-0.024360277
-0.020773375
-0.027767088
-0.035654677
-0.04301352
-0.048969941
-0.052116706
-0.052461167
-0.050204075
-0.046439137
-0.041949878
-0.037252576
-0.032477005
-0.027571374
-0.022460575
-0.017169577
-0.011886577
-0.006880629
-0.0022577932
0.0021393035
0.0067165411
0.010458766
0.013648126
0.016270654
0.018442707
0.020237706
0.021717125
0.022935925
0.023929909
0.024743103
0.025391251
0.025906313
0.0263076
-0.10589391
-0.10075961
-0.098818563
-0.10241867
-0.094117887
-0.071024602
-0.051096241
-0.039216774
-0.034193358
-0.045234454
-0.07094627
-0.093317438
-0.098581453
-0.076854436
-0.034847901
0.0027867388
0.018810186
0.02498192
0.026877485
0.018467769
0.001530665
-0.0053182322
-0.008374085
-0.0069816375
-0.0058995102
-0.11160414
-0.11318713
-0.10844075
-0.088279105
-0.066083796
-0.039685406
-0.02736466
-0.030567476
-0.041218719
-0.051359469
-0.058246826
-0.062572818
-0.062991394
-0.060497078
-0.055813959
-0.050356983
-0.044825705
-0.039470033
-0.034181158
-0.028764489
-0.02313966
-0.017464628
-0.012022651
-0.0069368871
-0.0020101208
0.003267349
0.0075873893
0.011295297
0.014346524
0.016879754
0.018976624
0.020711849
0.02214244
0.023322051
0.024284496
0.025074816
0.025702818
0.026206868
0.026598676
-0.11931781
-0.1042698
-0.093421615
-0.085256437
-0.083135806
-0.073845236
-0.053249359
-0.036689299
-0.028034083
-0.024399695
-0.035671742
-0.063401776
-0.081591994
-0.085822357
-0.06569049
-0.027295757
0.0058805299
0.019906607
0.024743535
0.02526356
0.017720843
0.0039538597
-0.0027220078
-0.0056391874
-0.0048537248
-0.0045059015
-0.12934165
-0.13283352
-0.11781329
-0.093773206
-0.060418996
-0.038249797
-0.035489198
-0.043542572
-0.057415631
-0.068877421
-0.073867468
-0.075407888
-0.072346006
-0.066792493
-0.059963089
-0.053268585
-0.047084854
-0.041287298
-0.035536953
-0.029610009
-0.023576018
-0.017730189
-0.012193102
-0.0067201335
-0.00067185343
0.0042881708
0.008580721
0.012115865
0.015057448
0.017497158
0.019519393
0.021193306
0.022573853
0.023713853
0.024645276
0.025410091
0.026017327
0.026509939
0.026892127
-0.14340414
-0.12314492
-0.10046982
-0.084525363
-0.072018541
-0.0656716
-0.055963668
-0.038193736
-0.023573287
-0.017398682
-0.01606158
-0.026936633
-0.055451438
-0.069670745
-0.072461167
-0.054210948
-0.019888491
0.0084896898
0.020381776
0.024025086
0.023342097
0.016559447
0.0054118863
-0.00059269549
-0.0034789521
-0.0030452219
-0.003313451
-0.15666924
-0.15106503
-0.12576702
-0.087271077
-0.053810275
-0.043669266
-0.047427258
-0.060034793
-0.076087352
-0.08750086
-0.088898961
-0.086532141
-0.079506114
-0.071130798
-0.06276212
-0.055394284
-0.048887983
-0.042740635
-0.036529225
-0.030200308
-0.023999842
-0.018045607
-0.012025182
-0.005140556
0.00052107194
0.0054681783
0.0095469246
0.012949216
0.015775747
0.01812342
0.020069537
0.021680947
0.023011477
0.024113068
0.025009726
0.025748507
0.026334077
0.026815083
0.027187654
-0.1791858
-0.15436123
-0.12235907
-0.09486944
-0.074889175
-0.059549115
-0.050422427
-0.040499541
-0.025553691
-0.012218275
-0.0087712717
-0.0070755466
-0.020644321
-0.046123084
-0.058117794
-0.058629912
-0.043003297
-0.012878522
0.010499145
0.020311523
0.022917523
0.021363276
0.015347758
0.0062461177
0.00094302212
-0.0017456464
-0.0016299583
-0.0023260191
-0.18535197
-0.16121669
-0.11908391
-0.07363583
-0.0552704
-0.053895537
-0.063466491
-0.080138649
-0.096607553
-0.10594813
-0.10212621
-0.094899747
-0.084052797
-0.073610551
-0.064518127
-0.056986096
-0.050321916
-0.043833286
-0.037273839
-0.030805534
-0.024497259
-0.017950524
-0.010174779
-0.0037535492
0.0019206671
0.0066062023
0.010526094
0.013788425
0.016502683
0.018756961
0.020625879
0.022175371
0.02345811
0.02451604
0.025377446
0.026089115
0.026652566
0.027121844
0.027484958
-0.21831144
-0.19914623
-0.16144345
-0.11888965
-0.087827419
-0.065305416
-0.048124912
-0.037271433
-0.027659947
-0.015385062
-0.0038905603
0.00152226
-0.0017100942
-0.013942233
-0.036346278
-0.046261154
-0.044749967
-0.032140786
-0.0064719547
0.011913155
0.019811485
0.021502887
0.01942592
0.014044823
0.0066120481
0.002002667
-0.00033211044
-0.00057031367
-0.001498926
-0.20034733
-0.15344299
-0.098284283
-0.070316339
-0.063148324
-0.068723625
-0.084114386
-0.10358281
-0.11766736
-0.12247714
-0.11206104
-0.09971909
-0.086016405
-0.074648687
-0.065614788
-0.058216333
-0.051427266
-0.044713067
-0.0380867
-0.031523284
-0.024506883
-0.015804522
-0.0085731811
-0.0020991176
0.0032590383
0.0077574261
0.011508909
0.014635773
0.017236589
0.01939663
0.021189505
0.022680608
0.023908527
0.024922477
0.025747256
0.026431349
0.026972286
0.027429786
0.027783613
-0.2398822
-0.24880324
-0.21452077
-0.16585506
-0.11390672
-0.080296796
-0.056392688
-0.038093668
-0.026501663
-0.017917288
-0.0077635613
0.0048467367