/*--------------------------------*- C++ -*----------------------------------*\
  =========                 |
  \\      /  F ield         | OpenFOAM: The Open Source CFD Toolbox
   \\    /   O peration     | Website:  https://openfoam.org
    \\  /    A nd           | Version:  8
     \\/     M anipulation  |
\*---------------------------------------------------------------------------*/
FoamFile
{
    version     2.0;
    format      ascii;
    class       surfaceScalarField;
    location    "300.966377299864348";
    object      phi;
}
// * * * * * * * * * * * * * * * * * * * * * * * * * * * * * * * * * * * * * //

dimensions      [0 3 -1 0 0 0 0];

internalField   nonuniform List<scalar> 
18180
(
-0.0016874155
-1.3872908
-0.0033060846
-1.2974527
-0.001585192
-1.3857056
-0.0048673619
-1.2135795
-0.0031003885
-1.2959375
-0.0014880374
-1.3842176
-0.0064187613
-1.1352231
-0.0045613697
-1.2121185
-0.002901691
-1.2945238
-0.0013795466
-1.382838
-0.0080027774
-1.0620003
-0.0060044601
-1.13378
-0.0042556344
-1.2107646
-0.0026849257
-1.2932185
-0.0012885848
-1.3815495
-0.0096791042
-0.99354682
-0.0074730639
-1.0605317
-0.0055666819
-1.132469
-0.0039239079
-1.2095256
-0.0025048076
-1.2920022
-0.0012035201
-1.3803459
-0.01151613
-0.92953029
-0.0090247876
-0.9919951
-0.0068495004
-1.0592489
-0.0051024467
-1.1312904
-0.0036535371
-1.2083769
-0.0023410347
-1.2908647
-0.0011224345
-1.3792235
-0.013596451
-0.86961367
-0.01072106
-0.92783402
-0.0081204631
-0.99072413
-0.0062141032
-1.0581372
-0.0047337528
-1.1302102
-0.0034182678
-1.2072996
-0.0021864914
-1.2898007
-0.0010386489
-1.3781849
-0.016020086
-0.8134584
-0.012611593
-0.86772314
-0.0093946183
-0.92655986
-0.0072429025
-0.98969534
-0.0057297698
-1.0571412
-0.0044350022
-1.1291935
-0.0032010417
-1.2062851
-0.0020265133
-1.2888128
-0.00094827421
-1.3772366
-0.018902395
-0.76075222
-0.014744436
-0.81132556
-0.010675601
-0.86644215
-0.0081597569
-0.92564301
-0.0066092501
-0.98881586
-0.0053749086
-1.0562013
-0.0041719327
-1.1282226
-0.0029753243
-1.2053363
-0.0018516624
-1.2879094
-0.00085082443
-1.3763858
-0.022397424
-0.7112439
-0.017175985
-0.75832067
-0.011938439
-0.81006272
-0.0089277917
-0.86567412
-0.0073257318
-0.92492653
-0.0062082452
-0.98798252
-0.0050883982
-1.0552848
-0.0038983199
-1.1272996
-0.0027238727
-1.2044641
-0.001660289
-1.2870999
-0.00074873003
-1.375637
-0.026692705
-0.66470291
-0.020014685
-0.7084052
-0.013134644
-0.75712447
-0.009476781
-0.80951373
-0.0078227359
-0.86517711
-0.0068951504
-0.92423962
-0.0059340993
-0.98713682
-0.0047980659
-1.0543851
-0.0035831892
-1.1264403
-0.0024423003
-1.2036821
-0.0014578902
-1.2863908
-0.00064604452
-1.374991
-0.031988211
-0.62089835
-0.02338976
-0.66132784
-0.014257386
-0.70728246
-0.0096748408
-0.75692641
-0.0080068201
-0.80932965
-0.007379907
-0.86469236
-0.0066826847
-0.92349104
-0.0056772467
-0.98625764
-0.0044499989
-1.0535183
-0.0032151369
-1.1256674
-0.0021388403
-1.2030011
-0.0012539693
-1.2857829
-0.00054888059
-1.3744421
-0.038416811
-0.57958462
-0.027454082
-0.61683403
-0.01527779
-0.66030743
-0.0093897626
-0.70756754
-0.0077491444
-0.75718408
-0.0075807422
-0.80912881
-0.0072909656
-0.86408408
-0.0065399226
-0.92262836
-0.0053457265
-0.98536191
-0.0040095835
-1.0527238
-0.0028059033
-1.1250004
-0.0018296097
-1.2024255
-0.0010597353
-1.285272
-0.00046212229
-1.37398
-0.04601415
-0.54066051
-0.032360833
-0.57467786
-0.016143979
-0.61596784
-0.0084688119
-0.66122839
-0.0068227735
-0.70849391
-0.0074528349
-0.75731199
-0.0077703291
-0.80864945
-0.0074058543
-0.86321814
-0.0063076196
-0.92166647
-0.0048621483
-0.98450935
-0.0034860449
-1.0520437
-0.0023812031
-1.1244488
-0.0015329321
-1.2019523
-0.00088576083
-1.2848484
-0.00038837361
-1.3735916
-0.05483111
-0.50402865
-0.038198141
-0.5348232
-0.016816205
-0.57400564
-0.0067377764
-0.61769888
-0.0050232722
-0.66302789
-0.006790411
-0.70915633
-0.0081449605
-0.75693736
-0.0083439391
-0.80771137
-0.0074033937
-0.86212237
-0.0058202826
-0.92070833
-0.0042187796
-0.98377661
-0.0029260341
-1.0514989
-0.0019713219
-1.1240104
-0.0012668572
-1.2015712
-0.0007381506
-1.2844986
-0.00032846738
-1.3732631
-0.064859339
-0.46948452
-0.045066914
-0.49715988
-0.017322619
-0.53431679
-0.0039827192
-0.5767607
-0.0021316396
-0.62059051
-0.0053940614
-0.66442424
-0.0083611425
-0.70894015
-0.0093710949
-0.7559102
-0.0087021689
-0.80641259
-0.0069544608
-0.86098819
-0.0050480146
-0.9198791
-0.0034900706
-0.98321258
-0.0023812892
-1.0510889
-0.0016032839
-1.123674
-0.0010430598
-1.2012663
-0.00061895966
-1.2842081
-0.00028175213
-1.3729814
-0.076145827
-0.43718505
-0.053093981
-0.46145746
-0.017601762
-0.49688074
-7.8054655e-05
-0.53822145
0.0021215355
-0.58101387
-0.0030685398
-0.62291603
-0.0083111099
-0.66447427
-0.010585202
-0.70772604
-0.010285989
-0.75432638
-0.008335274
-0.80503178
-0.0060245404
-0.86001167
-0.0041031047
-0.91926606
-0.002771399
-0.98282247
-0.0018931801
-1.050799
-0.0012964293
-1.1234206
-0.00086504946
-1.2010202
-0.00052700659
-1.2839628
-0.00024658068
-1.3727348
-0.088803495
-0.4074777
-0.062644037
-0.42763499
-0.017576202
-0.46148302
0.0051055971
-0.50206439
0.0080228115
-0.54412273
0.00041649946
-0.58449891
-0.0078778367
-0.6233493
-0.01207902
-0.66298045
-0.012330913
-0.70568112
-0.01008376
-0.7525779
-0.0072084755
-0.80384784
-0.0047905683
-0.8593242
-0.003148874
-0.91888859
-0.0021305923
-0.98258505
-0.0014896711
-1.0506058
-0.0010572414
-1.1232284
-0.0007302323
-1.200817
-0.0004588145
-1.2837506
-0.00022080712
-1.372514
-0.10231589
-0.37985397
-0.074303292
-0.39581844
-0.017428647
-0.42778255
0.011799207
-0.46817663
0.015746134
-0.50978771
0.0053547792
-0.54906101
-0.0069441884
-0.58543256
-0.013924013
-0.62150431
-0.015033644
-0.66027772
-0.012379178
-0.7033857
-0.0086899857
-0.75109639
-0.0055838317
-0.80305458
-0.0035088836
-0.85896419
-0.0023003922
-0.91871879
-0.0016078136
-0.98246691
-0.001182372
-1.0504806
-0.00088134136
-1.1230773
-0.00063210246
-1.2006437
-0.00040967171
-1.2835618
-0.00020214344
-1.3723119
-0.11553893
-0.35289274
-0.088019995
-0.36613727
-0.017504748
-0.39574234
0.020180813
-0.43616415
0.025366933
-0.47779743
0.01201064
-0.51644357
-0.0053640002
-0.5506412
-0.016214
-0.58314257
-0.018621214
-0.61791674
-0.015433411
-0.65722349
-0.010590203
-0.70148548
-0.0065189348
-0.75016128
-0.0038456615
-0.8027178
-0.002372328
-0.85889226
-0.0016237413
-0.91870286
-0.0012204674
-0.98242882
-0.00096582388
-1.0503962
-0.00075788007
-1.1229515
-0.00056267632
-1.2004907
-0.00037456034
-1.2833893
-0.00018844896
-1.3721234
-0.12767818
-0.32594854
-0.10246446
-0.33844827
-0.018205208
-0.36543681
0.030326106
-0.40588764
0.037072794
-0.44787001
0.020398064
-0.48618485
-0.0029742634
-0.51883331
-0.019079497
-0.5477757
-0.023365675
-0.57839811
-0.019493451
-0.6138567
-0.013061699
-0.65475199
-0.0076389844
-0.70036544
-0.0041475003
-0.74985945
-0.0023074108
-0.80278272
-0.0014918734
-0.85902413
-0.0011429192
-0.91878041
-0.00096345693
-0.98243118
-0.00082362834
-1.0503304
-0.00067361082
-1.1228406
-0.00051407682
-1.2003512
-0.00034891405
-1.2832289
-0.00017802198
-1.3719454
-0.13839079
-0.29976062
-0.1161123
-0.31230071
-0.019584498
-0.33706898
0.042137313
-0.37724802
0.050968161
-0.419783
0.030617508
-0.45808946
0.00027998885
-0.4894391
-0.022684747
-0.51522806
-0.029599527
-0.54154185
-0.024832742
-0.57305882
-0.016273611
-0.61064479
-0.0089995304
-0.65339144
-0.0043921941
-0.70012074
-0.0020560505
-0.75011081
-0.0011500749
-0.80312452
-0.00090367604
-0.85926337
-0.00084941226
-0.91889446
-0.00081305347
-0.98244176
-0.00073511002
-1.0502689
-0.0006161482
-1.1227385
-0.00047916439
-1.2002209
-0.00032914277
-1.2830777
-0.00016961739
-1.3717758
-0.14781834
-0.27458292
-0.12842811
-0.28744481
-0.021184764
-0.31070044
0.055203556
-0.35013522
0.066936583
-0.39321644
0.042722772
-0.43188827
0.0044140918
-0.46222356
-0.027119912
-0.48500394
-0.037689052
-0.50713853
-0.031775845
-0.53459875
-0.020403532
-0.5689289
-0.010658757
-0.60898556
-0.004549567
-0.65323407
-0.0015492167
-0.70062758
-0.00052433695
-0.75073655
-0.00043213287
-0.80359606
-0.00058797631
-0.85952481
-0.00070931253
-0.9189982
-0.00073732768
-0.98243954
-0.0006802632
-1.0502048
-0.00057541921
-1.1226423
-0.0004520563
-1.200098
-0.00031272035
-1.2829346
-0.00016238845
-1.3716134
-0.1559942
-0.25068615
-0.13941771
-0.26359331
-0.022637848
-0.28599173
0.068952045
-0.32444893
0.084728481
-0.36792712
0.0565868
-0.40708047
0.0093506697
-0.43682484
-0.032622066
-0.4567214
-0.047838173
-0.47485482
-0.04065471
-0.49825967
-0.025649769
-0.52935251
-0.012673064
-0.56691459
-0.004581788
-0.60895334
-0.0007008189
-0.65408247
0.00048099098
-0.70163291
0.00035642414
-0.7515251
-0.00011854629
-0.80406549
-0.00049102705
-0.85974309
-0.00067396081
-0.91906156
-0.00070424833
-0.98241556
-0.00064265574
-1.0501376
-0.00054355883
-1.1225508
-0.00042844729
-1.1999823
-0.00029797217
-1.2827991
-0.00015585178
-1.3714575
-0.16298687
-0.22842936
-0.14900903
-0.24109484
-0.023526998
-0.26270416
0.082930279
-0.29996996
0.10383345
-0.34355389
0.072122797
-0.38346312
0.015156318
-0.41288611
-0.039471444
-0.42997547
-0.060275148
-0.44428443
-0.051624667
-0.46388486
-0.032234235
-0.4916752
-0.015078853
-0.52694672
-0.0044407596
-0.56705562
0.0005911941
-0.61024536
0.0019854427
-0.65558692
0.0015667357
-0.70284322
0.00063931999
-0.75228297
-0.00011994428
-0.80443658
-0.00053951006
-0.85987754
-0.00069308149
-0.91907273
-0.00068678039
-0.98237143
-0.0006108373
-1.0500703
-0.00051411269
-1.1224651
-0.00040567149
-1.1998746
-0.00028407461
-1.2826708
-0.00014988959
-1.3713076
-0.16889763
-0.20795254
-0.15726402
-0.22017436
-0.023723905
-0.24089793
0.096989178
-0.27676306
0.12326715
-0.31940367
0.088921993
-0.36035309
0.022293851
-0.39060065
-0.047353425
-0.40500413
-0.075154264
-0.41509635
-0.064804166
-0.43110493
-0.040283743
-0.45583535
-0.017907208
-0.48884685
-0.0040509957
-0.52733649
0.0024408539
-0.56890528
0.0041248694
-0.61238478
0.0033254647
-0.65734565
0.001779807
-0.7039837
0.00046220902
-0.75286512
-0.00032216983
-0.80465392
-0.00065626148
-0.85991436
-0.00072314019
-0.91903637
-0.0006676055
-0.98231466
-0.00057750637
-1.0500069
-0.00048259473
-1.1223882
-0.00038290579
-1.1997757
-0.00027104503
-1.2825497
-0.00014464929
-1.371163
-0.17385462
-0.18928654
-0.16426906
-0.2009475
-0.023263659
-0.22063461
0.11097181
-0.25488057
0.14249535
-0.29599126
0.1060877
-0.33656938
0.031102466
-0.3691617
-0.055158251
-0.38279583
-0.092091371
-0.38806703
-0.080261845
-0.39963867
-0.049790557
-0.42159812
-0.02121837
-0.45252419
-0.0033016445
-0.4895962
0.0049765018
-0.52987213
0.0070506192
-0.57183103
0.0057834653
-0.61484278
0.0034196214
-0.65898546
0.0013247807
-0.70484627
2.3594067e-06
-0.75318965
-0.00060754669
-0.80470263
-0.00077445107
-0.85986305
-0.00073512327
-0.91896885
-0.00063425244
-0.98225792
-0.00053630887
-1.0499532
-0.00044843423
-1.1223226
-0.00036077289
-1.199686
-0.00025935329
-1.282435
-0.00014038307
-1.3710226
-0.17795926
-0.17240793
-0.17015178
-0.18340382
-0.02226694
-0.20194422
0.12466435
-0.23432714
0.16124859
-0.2736338
0.12329531
-0.31319886
0.040668061
-0.34613498
-0.061600188
-0.36271977
-0.11046229
-0.3644249
-0.098112781
-0.37021609
-0.060734396
-0.38869483
-0.024888738
-0.41792775
-0.0021521855
-0.45367365
0.0083526972
-0.49297239
0.010919824
-0.53374134
0.0091070349
-0.5751546
0.0056996807
-0.61712284
0.0025543205
-0.660215
0.00046701093
-0.70531093
-0.00055798431
-0.75323921
-0.00087384917
-0.80460323
-0.00084605908
-0.85975212
-0.00071067458
-0.91889243
-0.00058191491
-0.98221231
-0.00048730118
-1.0499143
-0.00041359871
-1.1222698
-0.00034031426
-1.199605
-0.0002496092
-1.2823257
-0.00013733598
-1.3708853
-0.18131668
-0.15721257
-0.17502794
-0.16753177
-0.020848597
-0.18482217
0.13784157
-0.21512144
0.17911432
-0.25219287
0.14018217
-0.29052066
0.049985077
-0.32251588
-0.066614906
-0.34112026
-0.1297799
-0.34340216
-0.11843658
-0.34410111
-0.07358705
-0.35736343
-0.028687867
-0.3848957
-0.0005009231
-0.41957901
0.012707067
-0.45802802
0.01589341
-0.49794598
0.013473366
-0.53810767
0.0087826681
-0.57823759
0.0042589904
-0.61882751
0.0011127366
-0.66086073
-0.00051792068
-0.70535099
-0.0010639093
-0.75304915
-0.0010470654
-0.80440223
-0.00084542004
-0.85961737
-0.00064736348
-0.91882698
-0.00051342503
-0.98218619
-0.00043433487
-1.0498936
-0.00038019153
-1.1222299
-0.00032273953
-1.1995319
-0.00024245176
-1.2822206
-0.00013568068
-1.3707496
-0.18477552
-0.16962444
-0.17903757
-0.15320294
-0.019171069
-0.1692093
0.15034291
-0.19732351
0.19589485
-0.23190197
0.15631336
-0.26832406
0.058471439
-0.29900703
-0.072186729
-0.31694405
-0.14885099
-0.32204917
-0.14087243
-0.32096631
-0.089124177
-0.32856398
-0.032767677
-0.35328362
0.0019096616
-0.38730629
0.018077935
-0.42494988
0.022149515
-0.46428412
0.019060158
-0.50353277
0.012848781
-0.54217378
0.0065702254
-0.58054882
0.001993131
-0.61970791
-0.00049709392
-0.66088156
-0.001391335
-0.70502357
-0.0014017709
-0.75269445
-0.0010905106
-0.80415714
-0.00077188793
-0.85949285
-0.00055216328
-0.91878825
-0.0004344196
-0.9821861
-0.0003812057
-1.0498926
-0.00035029011
-1.1222024
-0.00030940475
-1.199465
-0.0002382945
-1.282118
-0.00013552401
-1.3706141
-0.18721954
-0.16568097
-0.18406693
-0.16459508
-0.017310102
-0.15506391
0.16203739
-0.18090378
0.21147868
-0.21290733
0.17140595
-0.24699456
0.066327981
-0.2761806
-0.078663504
-0.29253025
-0.16705727
-0.29873778
-0.16367545
-0.29924614
-0.1071356
-0.30295488
-0.037941066
-0.32339059
0.0053059462
-0.35667991
0.024537984
-0.39376634
0.029789217
-0.43258958
0.026043045
-0.47126701
0.018089447
-0.50877343
0.0096430152
-0.54524657
0.0031790622
-0.58173475
-0.00050827678
-0.61969672
-0.0019178994
-0.66035499
-0.0019847249
-0.70444061
-0.0015183538
-0.75226661
-0.0010059292
-0.80392309
-0.00063876801
-0.85940624
-0.00043464674
-0.91878802
-0.00035116166
-0.98221615
-0.00033164434
-1.0499112
-0.00032610235
-1.1221857
-0.00030098118
-1.1994023
-0.00023728838
-1.2820163
-0.0001368896
-1.3704772
-0.18872715
-0.16198379
-0.18803873
-0.16170917
-0.019187037
-0.16271814
0.17290365
-0.16593017
0.2258483
-0.1952734
0.18526318
-0.22676456
0.073446121
-0.2541127
-0.085405265
-0.26943884
-0.18419612
-0.27539139
-0.18455671
-0.27785653
-0.12625988
-0.28012186
-0.045053264
-0.29584269
0.0095408057
-0.32762545
0.032284244
-0.36442617
0.038775075
-0.4027522
0.034588695
-0.44113523
0.024693051
-0.47787061
0.013656805
-0.51278722
0.0047625269
-0.54683004
-0.00056339553
-0.58167963
-0.0027195314
-0.61889509
-0.0028926253
-0.65944709
-0.0022193162
-0.70373965
-0.0014193574
-0.75185318
-0.00081811205
-0.80374375
-0.00046346997
-0.85937742
-0.00030517349
-0.91883401
-0.00027033572
-0.98227745
-0.00028962309
-1.0499477
-0.00030931637
-1.1221773
-0.00029713448
-1.1993424
-0.00023955822
-1.2819136
-0.00013971793
-1.3703375
-0.18943554
-0.15862582
-0.19099707
-0.15902545
-0.020437604
-0.1604586
0.17924755
-0.16906204
0.23890352
-0.17898539
0.19777322
-0.20778344
0.079753219
-0.23307166
-0.092211994
-0.24730597
-0.20055615
-0.25307882
-0.20344505
-0.25650306
-0.14509211
-0.2590243
-0.054290709
-0.27088441
0.013927226
-0.30022911
0.041431397
-0.3367726
0.049096528
-0.37474762
0.044771032
-0.41293453
0.032845299
-0.44928748
0.01881126
-0.48302507
0.006861287
-0.51488598
-0.00066768423
-0.54672575
-0.0038872435
-0.58051192
-0.00424742
-0.6175403
-0.0033080106
-0.6583584
-0.0021080859
-0.70305092
-0.0011502154
-0.75152107
-0.00055853088
-0.80364869
-0.00026433282
-0.85941826
-0.000175291
-0.91892905
-0.00019920746
-0.98236787
-0.00025846798
-1.0499985
-0.00030025725
-1.1221742
-0.00029920236
-1.1992828
-0.00024505598
-1.2818082
-0.00014386785
-1.3701936
-0.1894946
-0.15570737
-0.19300928
-0.15661362
-0.021151836
-0.15831121
0.18578414
-0.1669952
0.2488763
-0.17903482
0.20888813
-0.19010031
0.085205085
-0.21323531
-0.098848212
-0.22643544
-0.21608303
-0.23177909
-0.2209475
-0.23557636
-0.16277662
-0.23881854
-0.065063206
-0.2482518
0.017754273
-0.27471146
0.051908716
-0.31070643
0.060806641
-0.34848272
0.056521155
-0.38649775
0.042752085
-0.42284132
0.025326073
-0.45580229
0.0096290621
-0.48579284
-0.00081404296
-0.51473963
-0.0055284909
-0.5450845
-0.0061966186
-0.57856272
-0.0049245065
-0.6159238
-0.0031860894
-0.65728039
-0.0017234769
-0.70247766
-0.00076710188
-0.7513125
-0.00025837738
-0.80365464
-6.0936076e-05
-0.85953261
-5.8005538e-05
-0.91907025
-0.00014389507
-0.98248244
-0.00023995318
-1.0500588
-0.00030048679
-1.1221729
-0.00030698366
-1.1992209
-0.00025349999
-1.2816986
-0.00014914438
-1.3700445
-0.18903036
-0.15332594
-0.19416743
-0.15454922
-0.021365693
-0.15639976
0.19232558
-0.16485265
0.25873075
-0.17684965
0.22008821
-0.19023489
0.089919359
-0.19481458
-0.10511753
-0.20696599
-0.23066131
-0.21185717
-0.23704826
-0.21567834
-0.17890373
-0.21944924
-0.076269523
-0.22761223
0.020689765
-0.25118729
0.063384619
-0.28618736
0.073895987
-0.32379577
0.069808842
-0.3617704
0.054568039
-0.3983137
0.033454446
-0.43096969
0.013262401
-0.45943563
-0.00097772712
-0.48562916
-0.0077651477
-0.51250297
-0.0089188002
-0.54236232
-0.0072374104
-0.57624982
-0.004787569
-0.61432232
-0.0026376252
-0.65636625
-0.0011558695
-0.70208889
-0.0003211495
-0.75124973
5.1822213e-05
-0.8037674
0.00012610589
-0.85971673
3.5781232e-05
-0.91924993
-0.00010777524
-0.98261462
-0.00023504606
-1.0501243
-0.00030970305
-1.1221702
-0.00031995252
-1.1991544
-0.00026450054
-1.2815833
-0.00015532018
-1.3698891
-0.18811818
-0.15158091
-0.19458306
-0.15291031
-0.021096891
-0.15481803
0.19871379
-0.16278797
0.26825347
-0.17437538
0.23101431
-0.18777575
0.09990464
-0.20022017
-0.11079591
-0.1891362
-0.24417137
-0.19345592
-0.25176721
-0.19713821
-0.19339235
-0.20118973
-0.086992357
-0.20872641
0.022756347
-0.22967881
0.075440377
-0.26324305
0.088248813
-0.30054019
0.084591919
-0.33857885
0.068308996
-0.37551136
0.043537828
-0.40839708
0.018003421
-0.43571071
-0.0011050977
-0.45930826
-0.010734087
-0.48266022
-0.012628471
-0.5087933
-0.010444558
-0.53915517
-0.0070702605
-0.57396713
-0.0040046819
-0.61295527
-0.001802638
-0.65571948
-0.00049098755
-0.70191905
0.00014546367
-0.75134337
0.0003454183
-0.80398671
0.00028176581
-0.85996271
0.00010220839
-0.91945991
-9.1898166e-05
-0.98275777
-0.00024356038
-1.0501904
-0.00032725885
-1.1221629
-0.00033739359
-1.1990815
-0.00027755972
-1.281461
-0.00016214914
-1.369727
-0.18679376
-0.15051852
-0.1944076
-0.15175637
-0.020356334
-0.15365086
0.20480922
-0.16091345
0.27721012
-0.17174461
0.24143124
-0.18479231
0.10976993
-0.19764104
-0.10790557
-0.20311051
-0.25662198
-0.17668559
-0.26508894
-0.1801342
-0.2063042
-0.18422636
-0.096757875
-0.19142421
0.024141872
-0.21011194
0.08767314
-0.24191157
0.10366937
-0.2786636
0.10074262
-0.31669089
0.08392179
-0.35419164
0.055814773
-0.3877883
0.024156411
-0.41455007
-0.0010965113
-0.4357193
-0.014587557
-0.45545479
-0.017576357
-0.47771233
-0.014782068
-0.50445579
-0.010213239
-0.53601219
-0.0059514974
-0.57202031
-0.0027906282
-0.61196728
-0.00081733352
-0.65539313
0.00020361455
-0.7019772
0.00059723466
-0.75159519
0.00059941023
-0.80430436
0.00039933996
-0.86025984
0.00013935139
-0.91969116
-9.6043049e-05
-0.98290529
-0.00026466749
-1.050253
-0.0003519251
-1.1221484
-0.00035841506
-1.1990007
-0.00029210608
-1.2813311
-0.00016938118
-1.3695576
-0.18518808
-0.15013298
-0.19372983
-0.15119628
-0.019209951
-0.15290275
0.21051334
-0.15935498
0.28537619
-0.16907953
0.25108323
-0.18139661
0.11920021
-0.19422259
-0.10420146
-0.20134515
-0.2637806
-0.19595189
-0.27711198
-0.16466255
-0.21773241
-0.16870599
-0.10540035
-0.17558388
0.025064514
-0.19234685
0.099756596
-0.22219539
0.11987431
-0.25811652
0.11809517
-0.29601616
0.10134903
-0.33411813
0.070316558
-0.36869343
0.032009276
-0.39564117
-0.00083208471
-0.4148145
-0.019496483
-0.43081037
-0.024055228
-0.44897592
-0.020523021
-0.47197138
-0.014416572
-0.50025246
-0.0086170719
-0.53334662
-0.004207524
-0.57060342
-0.001354399
-0.61143021
0.00020552447
-0.65539504
0.00087978966
-0.70225976
0.00099775343
-0.75199353
0.00080051531
-0.80470553
0.00047623856
-0.86059673
0.00014779521
-0.919935
-0.00011898215
-0.98305097
-0.00029730051
-1.0503076
-0.0003823905
-1.1221244
-0.00038207555
-1.1989107
-0.00030754624
-1.2811929
-0.00017676429
-1.3693808
-0.15055922
-0.18315375
-0.19259645
-0.15126636
-0.0176556
-0.15275063
0.2157827
-0.15817211
0.29255675
-0.16653554
0.25972558
-0.17772188
0.12790564
-0.19010203
-0.10012435
-0.1982997
-0.27004746
-0.19507829
-0.28887316
-0.18419071
-0.22786642
-0.15452854
-0.11295476
-0.16115158
0.025710567
-0.17622994
0.11145278
-0.20404303
0.13651535
-0.23883643
0.13634268
-0.27636402
0.12030026
-0.31496739
0.086844488
-0.35064606
0.041646752
-0.3783309
-0.00026203496
-0.39621122
-0.025638192
-0.40867279
-0.03240797
-0.42245763
-0.027980811
-0.44151813
-0.019904482
-0.46648347
-0.012142535
-0.49672699
-0.0061450095
-0.53140913
-0.0021519276
-0.56980589
0.00013084456
-0.61135553
0.0011950435
-0.6557103
0.0014867777
-0.70274878
0.0013216097
-0.75251463
0.00094029495
-0.80516959
0.0005099818
-0.86095892
0.00012839701
-0.92018238
-0.00015890864
-0.98318936
-0.00033968018
-1.0503503
-0.00041801121
-1.1220885
-0.00040746249
-1.1988108
-0.00032342351
-1.2810462
-0.00018405836
-1.3691968
-0.15239195
-0.19076372
-0.15192949
-0.18063613
-0.015607358
-0.1533146
0.22055325
-0.15752119
0.29863733
-0.16425269
0.26714576
-0.17395572
0.13563911
-0.18545535
-0.095802613
-0.19442377
-0.27536476
-0.1929824
-0.29954463
-0.18440683
-0.24293688
-0.16912024
-0.11957966
-0.14790364
0.026187933
-0.16162895
0.12261111
-0.18738826
0.15324877
-0.22077646
0.15504638
-0.25754012
0.13998801
-0.29605177
0.10453583
-0.33265874
0.052461419
-0.36146072
0.00029297689
-0.37888591
-0.03328529
-0.38856412
-0.043014287
-0.39806647
-0.037519034
-0.41291941
-0.026917713
-0.4345049
-0.016673074
-0.46195293
-0.0086858628
-0.49418614
-0.0032554524
-0.53030561
-4.0554313e-05
-0.56963449
0.0015475761
-0.61170806
0.0020837568
-0.65630728
0.0019832849
-0.70341046
0.0015527476
-0.75312708
0.0010139407
-0.80567355
0.00050090569
-0.86133142
8.3330417e-05
-0.92042462
-0.00021356585
-0.98331548
-0.00038976535
-1.0503786
-0.00045727734
-1.1220387
-0.000434265
-1.1986999
-0.00033932974
-1.280891
-0.00019108082
-1.3690057
-0.15479046
-0.013208852
-0.15442908
-0.18826413
-0.15399735
-0.17768141
0.22475572
-0.15751707
0.30346677
-0.16235062
0.27318198
-0.1702889
0.14220364
-0.18052026
-0.091430293
-0.18982767
-0.27960411
-0.19018442
-0.30894392
-0.18358311
-0.25678495
-0.17055875
-0.13679992
-0.15189999
0.026776595
-0.1484923
0.13312495
-0.17214279
0.16976477
-0.20390426
0.17373956
-0.23946964
0.1595741
-0.27712621
0.12186663
-0.31338256
0.063277155
-0.34347447
-0.00042571178
-0.36074203
-0.043412225
-0.36875898
-0.056295066
-0.37528334
-0.04955221
-0.3860333
-0.035719074
-0.40411805
-0.02234591
-0.42883206
-0.011898437
-0.45874035
-0.0046995718
-0.49274202
-0.00031477632
-0.53003139
0.0019494132
-0.57003633
0.0028130006
-0.61243731
0.0028149086
-0.6571389
0.0023432474
-0.70420096
0.0016862576
-0.7537994
0.0010238336
-0.80619648
0.00045307661
-0.86170117
1.6328425e-05
-0.92065451
-0.00027973794
-0.9834255
-0.00044524998
-1.0503906
-0.0004984159
-1.1219745
-0.00046172499
-1.1985775
-0.00035486294
-1.2807272
-0.00019774621
-1.368808
-0.15814966
0.22811492
-0.15692442
-0.010713517
-0.15714717
-0.18511431
-0.15674048
-0.17432186
0.30689516
-0.16094547
0.27772795
-0.16689659
0.14742856
-0.17551382
-0.087189722
-0.18476083
-0.28268684
-0.18674494
-0.31702684
-0.1821015
-0.26932905
-0.17103901
-0.15292429
-0.15443438
0.013577823
-0.13870121
0.14322657
-0.15859393
0.18577809
-0.18815611
0.19201207
-0.22217677
0.17854626
-0.25844181
0.13830898
-0.29356857
0.073215844
-0.32332125
-0.0031927381
-0.34070745
-0.057667075
-0.34648718
-0.072857293
-0.35219675
-0.064404436
-0.36043111
-0.046600695
-0.37515168
-0.029283272
-0.39718068
-0.015831129
-0.42489937
-0.0064943451
-0.45694558
-0.0006882735
-0.49236852
0.0024233256
-0.5305053
0.0037076151
-0.57093094
0.0038534408
-0.61347584
0.0033500842
-0.65814573
0.0025622063
-0.70507691
0.0017275091
-0.75450307
0.00097690132
-0.8067203
0.00037218401
-0.86205703
-6.8994795e-05
-0.92086525
-0.00035425549
-0.9835165
-0.00050363033
-1.0503854
-0.0005402755
-1.121896
-0.00048856779
-1.1984438
-0.0003699416
-1.280555
-0.00020396153
-1.368604
-0.16018273
0.30892823
-0.15908443
0.23027493
-0.15982722
-0.0080334719
-0.16050184
-0.18135294
-0.16006681
-0.17058672
0.2806756
-0.16389312
0.15119748
-0.17066552
-0.083252208
-0.17945133
-0.28455189
-0.18289578
-0.32370268
-0.18006909
-0.28050964
-0.17092091
-0.16777014
-0.15619316
0.00032148334
-0.14117805
0.14176563
-0.13724027
0.20107404
-0.17388987
0.20946617
-0.20561021
0.19648394
-0.24011445
0.15376115
-0.27389398
0.082130731
-0.30248345
-0.0071394122
-0.31937458
-0.076238708
-0.32213581
-0.09320368
-0.3261408
-0.081962875
-0.33463831
-0.059669248
-0.34736256
-0.037605789
-0.36682916
-0.020499882
-0.39251193
-0.0086251445
-0.42276857
-0.0011343645
-0.45649949
0.0030034398
-0.49294864
0.0048104419
-0.53160812
0.0051455817
-0.57222308
0.0046193398
-0.61474509
0.0036853673
-0.6592689
0.0026498837
-0.70599928
0.0016866162
-0.75521279
0.00088135756
-0.80722948
0.0002643338
-0.86239036
-0.00016755195
-0.92105196
-0.00043436783
-0.98358576
-0.0005631996
-1.0503625
-0.00058144239
-1.1218031
-0.00051445394
-1.1982993
-0.00038422718
-1.2803747
-0.00020961613
-1.3683944
-0.16146796
0.28196083
-0.1595989
0.30944271
-0.16096025
0.23140797
-0.16329718
-0.0052381322
-0.16439267
-0.17702708
-0.16388496
-0.16652196
0.15347388
-0.16616952
-0.079761064
-0.17415666
-0.28515736
-0.17884586
-0.32891968
-0.17767878
-0.29023738
-0.17034135
-0.18121562
-0.15747543
-0.012516101
-0.14335557
0.13998321
-0.13939562
0.20850036
-0.14466659
0.22581067
-0.19023437
0.21319298
-0.22231925
0.16811117
-0.25446447
0.089874451
-0.2816377
-0.012204261
-0.2974186
-0.096360084
-0.2992532
-0.11697003
-0.29836947
-0.10148193
-0.30662174
-0.074371159
-0.3199364
-0.04729155
-0.3376768
-0.025889704
-0.36143934
-0.011049287
-0.39008779
-0.0016026963
-0.42230024
0.0037372647
-0.45723331
0.0061764621
-0.49431466
0.0067461889
-0.53320873
0.006204511
-0.57380825
0.0051063748
-0.6161661
0.0038363742
-0.66045538
0.002620677
-0.70693334
0.0015753376
-0.75590677
0.00074605559
-0.8077112
0.00013585814
-0.86269377
-0.00027525272
-0.92121107
-0.00051731576
-0.98363164
-0.00062252155
-1.0503214
-0.00062097313
-1.1216966
-0.00053886103
-1.1981447
-0.00039726739
-1.2801871
-0.00021475913
-1.3681796
-0.16221434
0.15422025
-0.15926926
0.28163119
-0.16032299
0.30880544
-0.16338628
0.23149706
-0.16724186
-0.0023889416
-0.16870978
-0.17220226
-0.16808529
-0.1621881
-0.076813298
-0.16911729
-0.28449584
-0.17481818
-0.3326458
-0.17511974
-0.29843062
-0.16948554
-0.1931359
-0.15842107
-0.024651692
-0.14533984
0.13793758
-0.14130994
0.21620155
-0.14709681
0.23674048
-0.15559641
0.22822477
-0.20526615
0.18128235
-0.23549043
0.096676403
-0.26126642
-0.017833674
-0.27600829
-0.11539749
-0.2783812
-0.14135344
-0.27486979
-0.12222625
-0.27762514
-0.089415126
-0.29157778
-0.057828329
-0.30939962
-0.031945454
-0.33162105
-0.013686583
-0.35880204
-0.0020253975
-0.38966509
0.0046866744
-0.42324965
0.0078649463
-0.4589218
0.0087165815
-0.49628505
0.0081655651
-0.53516978
0.0068819864
-0.57558386
0.0053385868
-0.61766831
0.0038240177
-0.66165873
0.0024914004
-0.7078494
0.0014064777
-0.75656719
0.00058007004
-0.80815541
-6.5053943e-06
-0.86296251
-0.00038822317
-0.92134017
-0.00060065961
-0.98365351
-0.00068018277
-1.0502622
-0.0006582821
-1.1215771
-0.00056110017
-1.1979809
-0.00040902206
-1.2799928
-0.00021931675
-1.3679603
-0.16452931
-0.074498329
-0.15890336
0.15385435
-0.15852598
0.27983418
-0.16156694
0.3069861
-0.16629754
0.23055274
-0.17155061
0.00045188671
-0.17332797
-0.16695958
-0.17255225
-0.15766257
-0.28260532
-0.1710078
-0.33488959
-0.17257439
-0.30501028
-0.16854008
-0.20346176
-0.15915968
-0.035775946
-0.14729681
0.13576103
-0.14316329
0.22396304
-0.14907143
0.24793835
-0.15829468
0.24138502
-0.16875667
0.1929939
-0.2169777
0.10269116
-0.24150518
-0.023319943
-0.25578015
-0.13249832
-0.25890746
-0.16323645
-0.25649819
-0.1434394
-0.25365665
-0.10447289
-0.26256738
-0.068017985
-0.28138812
-0.038372949
-0.30297212
-0.016456517
-0.32885112
-0.0023033428
-0.3585241
0.0059309457
-0.39090936
0.0099404803
-0.42532518
0.011122502
-0.46132772
0.010566396
-0.49868588
0.0090737754
-0.53736157
0.007213529
-0.57745881
0.0053467816
-0.61919108
0.0036722423
-0.66283957
0.0022804696
-0.70872339
0.0011930582
-0.75718017
0.000392167
-0.80855408
-0.00015891408
-0.86319182
-0.00050298156
-0.92143784
-0.00068242585
-0.98365126
-0.0007350792
-1.0501854
-0.00069277291
-1.1214455
-0.00058101841
-1.1978089
-0.00041925229
-1.2797929
-0.00022309628
-1.3677372
-0.16756094
-0.27957369
-0.16109468
-0.072307016
-0.15667373
0.1520021
-0.15857918
0.27684643
-0.16326313
0.3039517
-0.16958949
0.22859161
-0.17608756
0.0032114842
-0.1781141
-0.16139772
-0.17717164
-0.15304496
-0.33570939
-0.170188
-0.30992436
-0.16766032
-0.21221203
-0.15978981
-0.045633958
-0.14930167
0.13363577
-0.14517155
0.23168987
-0.15089013
0.25921422
-0.1603473
0.25426767
-0.17117733
0.21003323
-0.185796
0.10817874
-0.22246528
-0.028453269
-0.23637185
-0.14798936
-0.24028911
-0.18253804
-0.23960587
-0.16399908
-0.23593851
-0.12123878
-0.23689076
-0.077333168
-0.2532522
-0.044407931
-0.27535314
-0.01920226
-0.30022638
-0.0023210479
-0.32883341
0.0075650038
-0.36015815
0.012480577
-0.39344946
0.014033899
-0.42823658
0.013475111
-0.46423643
0.011746485
-0.50135859
0.0095216502
-0.53966969
0.0072433228
-0.57935535
0.0051647417
-0.62068358
0.0034072593
-0.66396636
0.0020065028
-0.70953684
0.00094754368
-0.75773555
0.00019028712
-0.80890328
-0.00031446943
-0.86338033
-0.00061653436
-0.92150374
-0.00076098263
-0.98362536
-0.00078636853
-1.0500918
-0.00072406297
-1.1213024
-0.00059846179
-1.1976297
-0.00042775875
-1.2795882
-0.00022602984
-1.3675112
-0.16807429
-0.33519605
-0.16560814
-0.27506022
-0.15796328
-0.071017467
-0.15544872