/*--------------------------------*- C++ -*----------------------------------*\
  =========                 |
  \\      /  F ield         | OpenFOAM: The Open Source CFD Toolbox
   \\    /   O peration     | Website:  https://openfoam.org
    \\  /    A nd           | Version:  8
     \\/     M anipulation  |
\*---------------------------------------------------------------------------*/
FoamFile
{
    version     2.0;
    format      ascii;
    class       surfaceScalarField;
    location    "300.966377299864348";
    object      phi_0;
}
// * * * * * * * * * * * * * * * * * * * * * * * * * * * * * * * * * * * * * //

dimensions      [0 3 -1 0 0 0 0];

internalField   nonuniform List<scalar> 
18180
(
-0.0016878905
-1.3872665
-0.00330668
-1.2974302
-0.0015861869
-1.3856803
-0.0048674401
-1.2135593
-0.0031024842
-1.2959139
-0.0014883205
-1.384192
-0.006416939
-1.1352066
-0.0045650145
-1.2120968
-0.0029024658
-1.2944997
-0.0013786333
-1.3828133
-0.0079963935
-1.0619903
-0.0060107789
-1.1337608
-0.0042574499
-1.2107418
-0.0026832627
-1.2931951
-0.0012865594
-1.3815268
-0.0096635889
-0.99354745
-0.0074843522
-1.0605168
-0.0055710043
-1.1324473
-0.0039218959
-1.2095032
-0.0025006412
-1.291981
-0.0012009865
-1.3803258
-0.011484737
-0.92954641
-0.0090446808
-0.99198712
-0.0068598006
-1.059228
-0.0051010755
-1.1312681
-0.0036470547
-1.2083568
-0.0023356345
-1.2908464
-0.0011201756
-1.3792056
-0.013540291
-0.86965117
-0.010755161
-0.92783593
-0.0081430064
-0.99070391
-0.0062155222
-1.0581135
-0.0047249182
-1.1301902
-0.0034093063
-1.2072831
-0.0021815886
-1.289785
-0.0010374334
-1.3781682
-0.015928708
-0.81352332
-0.012669248
-0.86773708
-0.0094387659
-0.92654017
-0.0072516245
-0.98966781
-0.0057188358
-1.0571196
-0.0044213866
-1.1291782
-0.0031926951
-1.206272
-0.0020237827
-1.2887986
-0.00094854795
-1.3772196
-0.018768218
-0.760852
-0.014839791
-0.81135278
-0.010754769
-0.86642108
-0.008183219
-0.92560858
-0.0065972932
-0.98878935
-0.0053555211
-1.0561855
-0.004158607
-1.1282122
-0.0029704433
-1.2053253
-0.0018520884
-1.2878951
-0.00085261558
-1.376367
-0.022212719
-0.71139062
-0.017332124
-0.75835967
-0.012071791
-0.81003576
-0.0089757154
-0.86562859
-0.0073146699
-0.9248912
-0.006181239
-0.98796363
-0.0050679192
-1.0552761
-0.0038899041
-1.1272928
-0.0027241461
-1.2044533
-0.0016639573
-1.2870837
-0.0007517168
-1.3756153
-0.02645432
-0.66491127
-0.020262145
-0.7084606
-0.013349173
-0.75708229
-0.0095609374
-0.80945054
-0.0078151079
-0.86512815
-0.0068581183
-0.92421432
-0.0059029413
-0.98712861
-0.004783143
-1.0543829
-0.0035826037
-1.1264343
-0.0024480033
-1.2036692
-0.0014641051
-1.2863714
-0.0006497063
-1.3749656
-0.031682778
-0.6211845
-0.023771221
-0.66140219
-0.014590126
-0.70721964
-0.0098131623
-0.75683006
-0.0080066778
-0.80925897
-0.0073302425
-0.86465602
-0.0066356238
-0.92348164
-0.0056511779
-0.98626058
-0.0044461129
-1.0535194
-0.0032231237
-1.1256592
-0.0021488864
-1.2029845
-0.0012615939
-1.2857595
-0.00055256566
-1.374413
-0.0380416
-0.57996117
-0.028017028
-0.61693869
-0.015775773
-0.66021654
-0.0096091024
-0.7074237
-0.0077540624
-0.75708268
-0.0075117014
-0.80907751
-0.0072194741
-0.86407217
-0.0064945427
-0.92263828
-0.0053343163
-0.98537237
-0.0040195736
-1.052723
-0.0028208039
-1.1249873
-0.001842053
-1.202404
-0.0010674503
-1.2852446
-0.00046531219
-1.3739477
-0.045569842
-0.54112691
-0.033163726
-0.57481448
-0.016874303
-0.61584016
-0.0088053627
-0.66102028
-0.0068381216
-0.70833964
-0.0073455339
-0.75724884
-0.007657625
-0.80863936
-0.0073270182
-0.8632397
-0.006282255
-0.92169034
-0.0048724732
-0.98451947
-0.0035075512
-1.0520362
-0.0023998832
-1.1244295
-0.0015455624
-1.2019259
-0.00089243307
-1.2848175
-0.00039074286
-1.373557
-0.05432491
-0.50458653
-0.039295306
-0.53499533
-0.017859367
-0.57382941
-0.0072358603
-0.61740966
-0.005055678
-0.66280273
-0.0066206078
-0.70906457
-0.0079745229
-0.75693195
-0.0082151376
-0.80775124
-0.0073549829
-0.86216697
-0.0058290096
-0.9207338
-0.0042491123
-0.98377791
-0.0029534858
-1.0514826
-0.0019902719
-1.1239848
-0.0012776428
-1.2015407
-0.0007430498
-1.2844652
-0.00032988413
-1.3732271
-0.064311275
-0.47014131
-0.0465123
-0.49736954
-0.018770532
-0.53408416
-0.0046966123
-0.57636866
-0.0021897016
-0.62027564
-0.0051363865
-0.66428695
-0.0080958008
-0.70894329
-0.009172668
-0.75597442
-0.0086209709
-0.80648525
-0.0069607515
-0.86103523
-0.0050898524
-0.91989306
-0.0035305113
-0.98320089
-0.002409087
-1.0510638
-0.0016193407
-1.1236431
-0.0010507098
-1.201233
-0.00062177497
-1.2841733
-0.00028225321
-1.3729448
-0.075592752
-0.43795576
-0.054952461
-0.46170114
-0.019560884
-0.49657919
-0.0010758282
-0.53770494
0.0020282699
-0.58058663
-0.0026940894
-0.62271794
-0.0078983842
-0.66448437
-0.010286831
-0.70782913
-0.010156112
-0.75443927
-0.0083381482
-0.80510785
-0.0060829811
-0.8600421
-0.0041630653
-0.91926051
-0.0028125168
-0.98279746
-0.0019166459
-1.0507665
-0.0013074601
-1.1233863
-0.00086910453
-1.2009857
-0.00052780987
-1.2839277
-0.00024632745
-1.3726985
-0.088230806
-0.40839571
-0.064991153
-0.42791706
-0.020164273
-0.46109776
0.0037522665
-0.50140728
0.0078781817
-0.54355485
0.00094212848
-0.58422285
-0.0072540457
-0.62336227
-0.01163368
-0.66313752
-0.012131357
-0.70585388
-0.010082167
-0.75269526
-0.0072909212
-0.80389991
-0.004879924
-0.85932524
-0.0032106557
-0.91886237
-0.0021651662
-0.98254894
-0.0015055626
-1.0505684
-0.0010625286
-1.1231929
-0.00073094688
-1.2007825
-0.00045797714
-1.2837161
-0.00022004052
-1.3724785
-0.10166526
-0.3809159
-0.077178355
-0.3962085
-0.020772898
-0.42730844
0.010022545
-0.46736803
0.015528142
-0.50905724
0.006071452
-0.54868418
-0.0060312126
-0.58544568
-0.013264616
-0.62173134
-0.014736218
-0.66053265
-0.012374524
-0.70356153
-0.00880906
-0.75117712
-0.0057162447
-0.80306359
-0.0036023314
-0.85893356
-0.0023521732
-0.91867536
-0.0016311311
-0.98242337
-0.0011893896
-1.0504415
-0.0008813698
-1.1230425
-0.00063018545
-1.2006103
-0.00040775145
-1.2835283
-0.00020114065
-1.3722773
-0.11478231
-0.35401839
-0.091405595
-0.36668866
-0.021794669
-0.39518673
0.017905544
-0.43519144
0.025067292
-0.47690718
0.012960367
-0.51594615
-0.004064944
-0.55065045
-0.015250304
-0.58345999
-0.018187311
-0.61828024
-0.015428684
-0.65747849
-0.010766377
-0.70160421
-0.0067136324
-0.75017973
-0.003986235
-0.80267969
-0.0024501738
-0.85883556
-0.001658018
-0.91864848
-0.0012302608
-0.9823825
-0.00096460123
-1.0503583
-0.00075391914
-1.1229187
-0.00055903043
-1.2004591
-0.00037217931
-1.2833573
-0.00018747353
-1.3720899
-0.12686302
-0.32701591
-0.10630249
-0.3391215
-0.023665449
-0.36481788
0.027459234
-0.40474042
0.03668749
-0.44681163
0.021624827
-0.48557164
-0.001170084
-0.51884101
-0.017691637
-0.54820911
-0.022747032
-0.57890027
-0.01949461
-0.61421432
-0.013324053
-0.65492082
-0.0079235427
-0.7003943
-0.0043557886
-0.74981018
-0.002424184
-0.80270568
-0.0015418717
-0.85895171
-0.0011564869
-0.91872225
-0.00096028502
-0.98238682
-0.00081610346
-1.0502961
-0.00066719208
-1.1228106
-0.0005096742
-1.2003216
-0.0003466451
-1.2831981
-0.00017728639
-1.3719126
-0.13753713
-0.30074356
-0.1203433
-0.3129751
-0.026364171
-0.33642277
0.03857599
-0.37593464
0.050496758
-0.41854969
0.032171484
-0.45735829
0.0027121231
-0.48945385
-0.020716064
-0.51581659
-0.028736787
-0.54221936
-0.02485116
-0.57354372
-0.016661617
-0.61087676
-0.0094124777
-0.65343188
-0.004695665
-0.70005442
-0.0022288043
-0.75000556
-0.001223388
-0.80302416
-0.00092150384
-0.85918669
-0.00084291587
-0.91883962
-0.00079973237
-0.98240319
-0.00072381152
-1.0502395
-0.00060873934
-1.1227115
-0.00047496047
-1.2001933
-0.00032744176
-1.283048
-0.00016927632
-1.3717433
-0.14695344
-0.27549374
-0.13300885
-0.28807801
-0.029281261
-0.31005801
0.050835436
-0.34868222
0.066391116
-0.39182899
0.044663235
-0.43104144
0.0076090553
-0.46225522
-0.024391419
-0.48577849
-0.036520623
-0.50803275
-0.031829601
-0.53524092
-0.020967873
-0.56923747
-0.011250731
-0.6090385
-0.0049843645
-0.65314319
-0.0018000538
-0.70048317
-0.00063138807
-0.75059756
-0.00045518893
-0.80349048
-0.00057521928
-0.85945439
-0.00068674321
-0.91895261
-0.00071783684
-0.98240916
-0.00066768323
-1.0501805
-0.00056833432
-1.1226181
-0.00044887704
-1.2000718
-0.00031192344
-1.2829053
-0.00016253784
-1.3715808
-0.15514425
-0.25151601
-0.14433981
-0.26416278
-0.031998214
-0.28536105
0.063683797
-0.32290637
0.084113708
-0.36640481
0.058957432
-0.40612319
0.013457755
-0.43689014
-0.028933999
-0.45771264
-0.046309963
-0.47598915
-0.040771854
-0.4990905
-0.026457048
-0.52975174
-0.013507761
-0.56698044
-0.0051937753
-0.60882909
-0.0010577718
-0.65388547
0.00032666756
-0.70144123
0.00032569123
-0.75137844
-9.4571938e-05
-0.80397113
-0.00045370107
-0.85968743
-0.00064140812
-0.91902904
-0.00068274015
-0.98239411
-0.00063092596
-1.0501179
-0.00053802723
-1.122529
-0.00042691785
-1.1999568
-0.00029828456
-1.2827696
-0.00015651721
-1.3714243
-0.16216679
-0.22917835
-0.15427424
-0.24158158
-0.034093594
-0.2620674
0.076738265
-0.29841552
0.10312843
-0.3419211
0.074922938
-0.38237032
0.020286216
-0.41295165
-0.034620418
-0.43120372
-0.058344716
-0.44567789
-0.051841168
-0.46491984
-0.033367103
-0.49218044
-0.016236137
-0.52702337
-0.0052859092
-0.56688831
9.3606718e-05
-0.60998047
0.0017668437
-0.65532564
0.0015250867
-0.70264063
0.0006801297
-0.75215314
-5.8907134e-05
-0.80436592
-0.00048682038
-0.85984202
-0.00065729249
-0.91905449
-0.00066716544
-0.98235787
-0.00060162966
-1.0500543
-0.00051128222
-1.1224446
-0.00040612137
-1.199849
-0.00028552515
-1.2826406
-0.00015102624
-1.3712732
-0.16811559
-0.20862247
-0.1628715
-0.22058108
-0.035421421
-0.24025375
0.089904607
-0.27523375
0.12252142
-0.31780851
0.092207071
-0.35920523
0.028484404
-0.39056851
-0.041177574
-0.40639449
-0.072806202
-0.41674223
-0.065169349
-0.43234971
-0.041833084
-0.45645386
-0.019486166
-0.48893041
-0.0051953402
-0.52711394
0.0017608825
-0.56855558
0.0038209645
-0.61203459
0.0032686476
-0.6570692
0.0018443567
-0.70380485
0.00055907737
-0.75277112
-0.00023821802
-0.80461452
-0.00059857244
-0.85990074
-0.00069062027
-0.91903103
-0.0006524935
-0.982307
-0.0005726077
-1.049993
-0.00048304715
-1.1223677
-0.00038530481
-1.1997492
-0.00027351267
-1.2825181
-0.00014616622
-1.3711271
-0.17311481
-0.18988216
-0.17021329
-0.20128067
-0.036012497
-0.21999001
0.10305004
-0.25339919
0.14169915
-0.29441147
0.10982703
-0.33542847
0.03826922
-0.36899004
-0.04750449
-0.38424159
-0.089305585
-0.38989511
-0.080829713
-0.40108187
-0.051861501
-0.42232129
-0.02332888
-0.45261115
-0.0048222275
-0.48930353
0.0040675057
-0.52942056
0.0066364687
-0.57137109
0.0057057805
-0.61447172
0.0035166792
-0.65874153
0.0014731463
-0.70471892
0.00013343732
-0.75314278
-0.00051651193
-0.80469658
-0.00072170139
-0.85986966
-0.0007104261
-0.9189731
-0.00062605907
-0.98225355
-0.00053644641
-1.0499396
-0.00045198849
-1.122301
-0.0003648891
-1.1996578
-0.00026263895
-1.2824016
-0.0001421599
-1.3709849
-0.17726158
-0.17293445
-0.17642393
-0.18367153
-0.035981295
-0.20131188
0.11597941
-0.23291938
0.16038064
-0.27208069
0.12746597
-0.3120504
0.048642705
-0.34580196
-0.05234031
-0.36415422
-0.10716235
-0.36638483
-0.098871378
-0.37185345
-0.063434743
-0.38950863
-0.027648445
-0.41800173
-0.0041355354
-0.45329784
0.0071647497
-0.49240077
0.010366066
-0.53315016
0.0090005526
-0.57466586
0.005839483
-0.61679453
0.0027743963
-0.66004278
0.00066657466
-0.70525206
-0.00041687391
-0.75324242
-0.00079093212
-0.80462735
-0.00080612643
-0.85977396
-0.00069686083
-0.9189023
-0.00058117756
-0.98220882
-0.00049220442
-1.0498994
-0.00041985766
-1.122246
-0.00034582009
-1.1995746
-0.00025345434
-1.2822903
-0.00013924386
-1.3708457
-0.18065553
-0.1576761
-0.18161127
-0.16774711
-0.035438799
-0.18421402
0.12846926
-0.21380173
0.17820974
-0.25074847
0.14478615
-0.28940087
0.058937419
-0.32234512
-0.055571074
-0.34257119
-0.12577124
-0.34554533
-0.11928992
-0.34596628
-0.077000994
-0.35828719
-0.032228914
-0.38492816
-0.0030269839
-0.41911028
0.011184269
-0.45731736
0.015167901
-0.4972026
0.013327112
-0.53747672
0.0089760848
-0.57780246
0.0045760459
-0.61859618
0.0014088943
-0.6607851
-0.00030420077
-0.70536473
-0.0009361339
-0.75309722
-0.00098431299
-0.80444917
-0.00082267166
-0.85964815
-0.00064487811
-0.9188386
-0.00051983831
-0.98218119
-0.00044341325
-1.0498759
-0.0003886557
-1.1222032
-0.0003291764
-1.1994989
-0.00024657895
-1.282183
-0.00013760042
-1.3707081
-0.18413075
-0.17011886
-0.18591677
-0.1533706
-0.034551246
-0.16863466
0.1403509
-0.19609566
0.19497218
-0.23056417
0.16131313
-0.26727545
0.068590054
-0.29905351
-0.059462166
-0.31845403
-0.14397563
-0.32436681
-0.14177749
-0.32305776
-0.093285006
-0.32968227
-0.037257913
-0.3532582
-0.0012311743
-0.38672397
0.016165518
-0.42409153
0.021217823
-0.46336728
0.018859145
-0.50273464
0.013106255
-0.54160689
0.0070144279
-0.58024084
0.0024226464
-0.61960993
-0.00018025257
-0.66090904
-0.0011981615
-0.7051027
-0.0013054324
-0.7527761
-0.0010546135
-0.80421722
-0.00076666141
-0.85952637
-0.00056048646
-0.91879795
-0.00044724131
-0.98217736
-0.00039370185
-1.0498708
-0.00036029484
-1.1221721
-0.00031627047
-1.1994292
-0.00024245673
-1.2820781
-0.00013735048
-1.3705707
-0.18658889
-0.16613408
-0.19113778
-0.16489785
-0.033394058
-0.15452779
0.15147934
-0.1797631
0.2105592
-0.21168267
0.17679677
-0.24604781
0.077591772
-0.27627717
-0.064444808
-0.29407086
-0.16150635
-0.3009233
-0.16471019
-0.30143411
-0.11202366
-0.3043191
-0.043593398
-0.32334679
0.0014669224
-0.35595629
0.022199095
-0.39275754
0.028608191
-0.4314819
0.025770121
-0.47027825
0.018419205
-0.50804759
0.010248802
-0.54484126
0.0037876675
-0.58160586
-4.8373065e-05
-0.61974181
-0.0016313807
-0.66047583
-0.001839625
-0.70456851
-0.0014636155
-0.7523671
-0.00099719723
-0.80398669
-0.00064995519
-0.8594369
-0.00045272194
-0.91879247
-0.00036928156
-0.98220178
-0.00034657592
-1.0498845
-0.00033688961
-1.1221515
-0.00030795881
-1.1993637
-0.00024127936
-1.2819742
-0.00013853481
-1.3704322
-0.18810643
-0.16239084
-0.19528567
-0.16198619
-0.035880898
-0.16241101
0.16183381
-0.16488226
0.22496595
-0.19416986
0.19104284
-0.22592874
0.085807043
-0.25426308
-0.069763202
-0.27095878
-0.17819353
-0.27738368
-0.1856394
-0.27999409
-0.13177686
-0.28168091
-0.05203463
-0.29587787
0.0048719794
-0.32675184
0.029499607
-0.3632568
0.037303599
-0.40145295
0.034222819
-0.4399346
0.025099289
-0.47695834
0.01446138
-0.51226017
0.0056066324
-0.54666023
9.3933827e-05
-0.58174817
-0.0023016148
-0.61907157
-0.0026778947
-0.65963756
-0.0021369519
-0.70389518
-0.0014063365
-0.75195796
-0.00083398391
-0.80380266
-0.00048918704
-0.85940043
-0.00033134563
-0.9188304
-0.00029219693
-0.98225616
-0.00030584135
-1.0499156
-0.00032026848
-1.1221391
-0.00030397868
-1.199301
-0.00024318682
-1.2818696
-0.00014111511
-1.3702911
-0.18882582
-0.15898462
-0.19839964
-0.15927686
-0.037702189
-0.1601649
0.16753504
-0.16811223
0.23809448
-0.17801079
0.20393316
-0.20706017
0.09314465
-0.23326635
-0.075239362
-0.24878692
-0.19417402
-0.25497829
-0.20452506
-0.25849803
-0.15109008
-0.26068087
-0.062642626
-0.27107291
0.0082303368
-0.29923623
0.038181488
-0.33543372
0.04731275
-0.37326596
0.04427534
-0.41150547
0.033325264
-0.44816057
0.019850747
-0.4823477
0.0080088072
-0.51466234
0.00025680212
-0.54682309
-0.0032884782
-0.58076131
-0.0039356172
-0.61781385
-0.0031864367
-0.65858807
-0.0020885477
-0.70321296
-0.0011735657
-0.75161837
-0.00059533603
-0.80369651
-0.0003019148
-0.85942986
-0.00020707487
-0.91891552
-0.00022299469
-0.982339
-0.00027491451
-1.0499609
-0.00031086605
-1.1221323
-0.00030542147
-1.1992388
-0.00024817081
-1.2817625
-0.00014497156
-1.3701461
-0.18889897
-0.15601851
-0.20054894
-0.15683533
-0.038942145
-0.15803691
0.17344595
-0.1660758
0.24795082
-0.17796857
0.21540639
-0.18948402
0.099542238
-0.21345776
-0.08065658
-0.22784913
-0.20938418
-0.23357676
-0.22205151
-0.23745183
-0.16913202
-0.24045608
-0.074720009
-0.24860348
0.010816637
-0.27365921
0.048145606
-0.30920034
0.05869716
-0.34681813
0.05584525
-0.38483587
0.043288149
-0.42146836
0.026631169
-0.45494099
0.011158327
-0.48549722
0.00046502678
-0.51487057
-0.0046837125
-0.54542786
-0.0057523838
-0.57894454
-0.0047496422
-0.61625065
-0.0031580188
-0.6575186
-0.0017583871
-0.70262814
-0.00082006129
-0.75139365
-0.00031185301
-0.80368657
-0.00010642592
-0.85953051
-9.2490441e-05
-0.91904603
-0.0001679113
-0.98244601
-0.00025571118
-1.0500161
-0.00031015686
-1.1221275
-0.00031233437
-1.1991746
-0.00025599345
-1.2816515
-0.00014992826
-1.3699962
-0.18844721
-0.15359068
-0.20182937
-0.15473808
-0.039629963
-0.15614751
0.1793925
-0.16398346
0.25772765
-0.17585264
0.22661984
-0.18918202
0.10509696
-0.19503874
-0.08582896
-0.20828538
-0.22369329
-0.21354002
-0.23821801
-0.21741026
-0.18560349
-0.22098037
-0.087053507
-0.22812259
0.012348573
-0.25013542
0.059017558
-0.28453117
0.071455393
-0.32195858
0.06890599
-0.35987887
0.055110675
-0.39665839
0.035046604
-0.42988379
0.015260653
-0.45904332
0.00076617655
-0.48579837
-0.0065887392
-0.51296554
-0.0082974328
-0.54288281
-0.0069927211
-0.57670146
-0.004750264
-0.6146584
-0.0026905913
-0.6565864
-0.0012340541
-0.70221415
-0.0003971917
-0.75130831
-1.2435516e-05
-0.80378056
7.6960988e-05
-0.85969996
1.5820863e-06
-0.91921552
-0.00013073438
-0.98257098
-0.00024943935
-1.0500768
-0.00031807498
-1.1221218
-0.00032427302
-1.1991064
-0.0002663104
-1.2815351
-0.00015577513
-1.3698404
-0.18753556
-0.15179191
-0.20235446
-0.15306559
-0.039779459
-0.15458858
0.1852311
-0.16198612
0.26720291
-0.17345871
0.23755503
-0.18678784
0.11550201
-0.19958706
-0.090528888
-0.19033882
-0.23696353
-0.19501514
-0.2530393
-0.19871874
-0.2004346
-0.20257916
-0.098742202
-0.20929167
0.012898036
-0.22867205
0.070351668
-0.26146953
0.08547416
-0.29854993
0.083416989
-0.33646958
0.068790579
-0.37355878
0.045420246
-0.40703204
0.020563705
-0.43518684
0.0012411067
-0.45951825
-0.0091153555
-0.48327176
-0.011772845
-0.50949013
-0.01011178
-0.53976375
-0.0070253105
-0.57442642
-0.0040859355
-0.61326306
-0.0019191317
-0.65590132
-0.0006011952
-0.70201015
5.3020333e-05
-0.75137377
0.00027444647
-0.80397805
0.00023224575
-0.85993063
6.913939e-05
-0.9194154
-0.00011287247
-0.98270755
-0.00025608793
-1.0501388
-0.00033407931
-1.122112
-0.00034059662
-1.1990321
-0.0002786669
-1.2814122
-0.00016227902
-1.3696781
-0.18620073
-0.15068165
-0.20225896
-0.15188741
-0.039401471
-0.15344358
0.19083741
-0.16019489
0.27613959
-0.1709228
0.24798239
-0.18388607
0.12572826
-0.19701409
-0.086571799
-0.20354415
-0.24918452
-0.17811783
-0.26649613
-0.18155831
-0.21368635
-0.18546699
-0.10932718
-0.19199418
0.01277608
-0.20916971
0.081743455
-0.24006383
0.10054486
-0.27654023
0.09924632
-0.31437927
0.08427028
-0.35194928
0.057973578
-0.38611211
0.027384
-0.41385233
0.0020210918
-0.43596683
-0.012383894
-0.45624971
-0.016414894
-0.47862971
-0.014342157
-0.50525975
-0.010165988
-0.53662307
-0.0060767772
-0.57243557
-0.0029630345
-0.61221916
-0.00097878931
-0.65552372
7.1199494e-05
-0.70202833
0.00049485449
-0.75159417
0.00052716464
-0.80427297
0.00035135818
-0.86021285
0.00010897041
-0.91963724
-0.0001143234
-0.98284931
-0.00027493995
-1.0501979
-0.00035709828
-1.1220955
-0.00036046975
-1.1989503
-0.0002925289
-1.2812819
-0.0001692019
-1.3695089
-0.18455758
-0.15025236
-0.20164538
-0.15129522
-0.038564813
-0.15272407
0.19612732
-0.15873349
0.28431482
-0.16837012
0.25765082
-0.18059122
0.13547967
-0.19363748
-0.081872032
-0.20171386
-0.25551836
-0.19721031
-0.2786757
-0.16593826
-0.22544053
-0.16980412
-0.11866687
-0.17612729
0.012259041
-0.19147714
0.092892429
-0.22031869
0.11637231
-0.25589128
0.11623183
-0.29352574
0.10149041
-0.3315994
0.072727227
-0.36670293
0.036032966
-0.39476107
0.0032688401
-0.41510008
-0.016523702
-0.43182702
-0.02249875
-0.45016585
-0.019956627
-0.47301524
-0.014379726
-0.50104601
-0.0088089076
-0.53389094
-0.0044602965
-0.57093831
-0.0015885618
-0.61160938
1.6920189e-05
-0.65546945
0.00073358789
-0.70226706
0.000893326
-0.75196033
0.0007305612
-0.80465217
0.00043174828
-0.86053562
0.00012098417
-0.91987255
-0.00013411124
-0.98299014
-0.00030507667
-1.0502499
-0.00038580188
-1.1220701
-0.00038301808
-1.1988598
-0.00030732315
-1.2811438
-0.00017630228
-1.3693326
-0.15063323
-0.18248975
-0.20058145
-0.15131629
-0.037261729
-0.15259831
0.20105658
-0.15765333
0.29153422
-0.16595289
0.26631603
-0.17703533
0.14445823
-0.18956978
-0.076907983
-0.19860153
-0.26094274
-0.19628948
-0.2900846
-0.18580141
-0.23587225
-0.15550654
-0.12681211
-0.16165889
0.011564002
-0.17543225
0.10359298
-0.2021777
0.13260732
-0.2365537
0.13410069
-0.27376014
0.12022249
-0.31225782
0.089540832
-0.348413
0.046635821
-0.37730578
0.0050851666
-0.3965774
-0.021664179
-0.4099596
-0.030346917
-0.42397886
-0.027270074
-0.44285241
-0.019900561
-0.4674944
-0.012433732
-0.49742119
-0.0065108875
-0.53184035
-0.002487527
-0.57003935
-0.00013872727
-0.61145374
0.00098880266
-0.65572466
0.0013382511
-0.70271198
0.0012216756
-0.75245145
0.00087625105
-0.80509667
0.00047092351
-0.86088556
0.00010603909
-0.9201127
-0.00017060226
-0.98312462
-0.00034490698
-1.0502908
-0.00041959093
-1.1220336
-0.00040731749
-1.1987598
-0.00032259019
-1.2809975
-0.00018334603
-1.3691493
-0.15239541
-0.19881926
-0.15193899
-0.17993824
-0.035407176
-0.15317085
0.20558253
-0.15712426
0.29768735
-0.16380646
0.2737639
-0.17340077
0.15241163
-0.18498873
-0.071838788
-0.19463897
-0.26543832
-0.19410595
-0.30043551
-0.18593858
-0.25068262
-0.17099103
-0.13397618
-0.14834246
0.010803703
-0.16089859
0.11372893
-0.18556821
0.14891565
-0.21848603
0.15245776
-0.25491077
0.13980485
-0.2933425
0.10767861
-0.3303956
0.058689213
-0.36046639
0.0072965933
-0.37951721
-0.028020943
-0.39022064
-0.040314073
-0.39999245
-0.036648987
-0.41459994
-0.026983727
-0.43576924
-0.017110408
-0.46281773
-0.0092073684
-0.49472471
-0.0037292738
-0.53059861
-0.00041955159
-0.56975852
0.00126105
-0.61172598
0.0018763777
-0.65626279
0.0018430166
-0.70333332
0.001462605
-0.7530378
0.00095847282
-0.80558422
0.00046850474
-0.86124803
6.5886482e-05
-0.92034919
-0.00022173753
-0.98324779
-0.00039249313
-1.0503179
-0.00045719822
-1.1219837
-0.00043301933
-1.1986494
-0.00033794986
-1.2808429
-0.00019014513
-1.3689591
-0.15467824
-0.033124347
-0.15440049
-0.19635776
-0.15394036
-0.17695017
0.20967354
-0.15726186
0.30261114
-0.16204805
0.27983559
-0.16987815
0.15914299
-0.18013213
-0.066883921
-0.1899436
-0.26887223
-0.19120505
-0.30954352
-0.18499794
-0.2642802
-0.172341
-0.15121711
-0.1537501
0.010264027
-0.14780279
0.12322087
-0.17039053
0.16499619
-0.20164875
0.17088126
-0.23690953
0.15945147
-0.27455739
0.1257338
-0.31139769
0.070943005
-0.34264939
0.0088265876
-0.36199639
-0.036480021
-0.37105813
-0.052803394
-0.37773132
-0.04851473
-0.3881267
-0.035911481
-0.40567219
-0.022993827
-0.42988582
-0.012631348
-0.45939375
-0.0053567102
-0.49309727
-0.00083916825
-0.53017899
0.0015558875
-0.57005336
0.0025288414
-0.61237845
0.00262131
-0.65704108
0.0022184928
-0.70408921
0.001609054
-0.75368838
0.00097818209
-0.8060939
0.0004277853
-0.86160993
3.7049491e-06
-0.92057463
-0.00028449167
-0.98335579
-0.00044568119
-1.0503295
-0.00049682749
-1.1219199
-0.00045953752
-1.1985278
-0.00035297599
-1.2806801
-0.00019660608
-1.3687625
-0.15804933
0.21304463
-0.15687196
-0.030652879
-0.1570807
-0.19321742
-0.15661767
-0.17355963
0.30614458
-0.1607953
0.28442424
-0.16663669
0.16448077
-0.17521593
-0.062241178
-0.18477487
-0.27117557
-0.18764026
-0.31736575
-0.18338282
-0.27655788
-0.17272026
-0.16730433
-0.15625378
-0.0040696453
-0.13941643
0.13234366
-0.15692558
0.18058602
-0.18598036
0.18896678
-0.21973427
0.17856737
-0.25602543
0.14298921
-0.2918128
0.082223344
-0.32267803
0.0088597365
-0.34268254
-0.048785007
-0.3496914
-0.068508078
-0.35535344
-0.063229982
-0.36301606
-0.047004146
-0.37703404
-0.03022866
-0.39843736
-0.016846381
-0.42567079
-0.0073899258
-0.45736053
-0.0014012362
-0.4925352
0.001890922
-0.53051402
0.0033242462
-0.57084876
0.0035909653
-0.6133481
0.0031802565
-0.65800284
0.0024566068
-0.70493676
0.001664568
-0.75437477
0.00094148223
-0.8066076
0.0003540501
-0.86196027
-7.6554409e-05
-0.92078256
-0.00035577098
-0.9834457
-0.00050200573
-1.0503243
-0.00053734563
-1.1218421
-0.00048559648
-1.1983952
-0.00036757961
-1.2805091
-0.00020265188
-1.3685599
-0.16018611
0.30828136
-0.15914415
0.21531682
-0.15982366
-0.027909915
-0.16039984
-0.18943525
-0.15987851
-0.16979629
0.28741714
-0.1637882
0.16831131
-0.17046723
-0.058087348
-0.17936976
-0.272302
-0.18364844
-0.32381389
-0.18119213
-0.2874645
-0.17247621
-0.18210193
-0.15792266
-0.018316473
-0.14200695
0.12942624
-0.13649901
0.19549146
-0.17183101
0.20631075
-0.20332433
0.19672742
-0.23789432
0.15925386
-0.27229008
0.092529819
-0.30211927
0.0077709493
-0.32158924
-0.06537611
-0.32609143
-0.08817746
-0.33002202
-0.080829473
-0.33775395
-0.060420201
-0.34960001
-0.038963701
-0.368299
-0.021884975
-0.39339876
-0.0098252881
-0.42323543
-0.0020857395
-0.45667603
0.0022940001
-0.49293828
0.0043015137
-0.53149129
0.0047961219
-0.57205392
0.0043921774
-0.61456002
0.003543568
-0.6590898
0.0025648614
-0.70583706
0.0016383435
-0.75507163
0.00085613532
-0.80710968
0.00025313631
-0.86228996
-0.00017052038
-0.92096782
-0.00043290694
-0.9835148
-0.00055971248
-1.0503019
-0.00057739905
-1.1217503
-0.00051077027
-1.198252
-0.00038149657
-1.2803303
-0.00020815518
-1.3683517
-0.16152198
0.28875301
-0.15973394
0.30887115
-0.16116874
0.21666189
-0.16334703
-0.024962726
-0.16425579
-0.18505797
-0.16363266
-0.16570554
0.17059741
-0.16607431
-0.054563598
-0.17399098
-0.27224137
-0.17943039
-0.32883645
-0.17862588
-0.29690398
-0.17175265
-0.19548918
-0.15908896
-0.031990746
-0.14424839
0.12612029
-0.13870099
0.20215896
-0.14316651
0.22264201
-0.18816227
0.21374316
-0.22034007
0.17437052
-0.25301098
0.10180482
-0.28156508
0.0052593662
-0.29960769
-0.083704125
-0.30326123
-0.11174686
-0.30252204
-0.10075066
-0.31010083
-0.075688016
-0.32248614
-0.049207713
-0.339356
-0.027751123
-0.36243285
-0.012629588
-0.39059446
-0.0028482248
-0.42247294
0.0028085384
-0.45719057
0.0055120017
-0.49414877
0.0062891549
-0.53298432
0.0059061719
-0.57356791
0.0049196344
-0.61593609
0.0037239704
-0.66024891
0.0025565602
-0.70675527
0.0015414993
-0.75575699
0.00073058519
-0.80758713
0.00013113016
-0.86259161
-0.00027406072
-0.92112666
-0.00051321963
-0.98356129
-0.00061740801
-1.0502619
-0.00061597058
-1.1216451
-0.00053462618
-1.1980988
-0.00039423889
-1.2801442
-0.00021315935
-1.3681385
-0.16222449
0.17129993
-0.15945245
0.28847151
-0.1605925
0.30829492
-0.16373584
0.21705071
-0.167346
-0.021872513
-0.16853908
-0.18015155
-0.16777132
-0.16134825
-0.051754656
-0.16888325
-0.27101948
-0.17521287
-0.33238876
-0.17587808
-0.30478459
-0.17074527
-0.20735162
-0.15989021
-0.044825312
-0.14625439
0.12255306
-0.14068116
0.20903668
-0.14557871
0.2332372
-0.1537617
0.22912175
-0.20354086
0.18821336
-0.23418291
0.11010361
-0.26130978
0.0017358554
-0.27804157
-0.10144631
-0.2818655
-0.13638366
-0.27862443
-0.12223094
-0.28104176
-0.091545976
-0.29424287
-0.060457546
-0.3112363
-0.03440254
-0.33270458
-0.015732591
-0.35932985
-0.0036257029
-0.38981699
0.0034949681
-0.42315937
0.0070129196
-0.45869148
0.0081303609
-0.49598997
0.0077811271
-0.53485928
0.0066407494
-0.57528903
0.0051932519
-0.61740537
0.0037410747
-0.66143343
0.002447578
-0.70766135
0.0013862584
-0.75641267
0.00057360145
-0.8080296
-5.5139775e-06
-0.86286016
-0.00038334178
-0.92125654
-0.0005942848
-0.98358441
-0.00067369715
-1.0502042
-0.00065248331
-1.1215272
-0.00055644358
-1.1979366
-0.00040575224
-1.2799516
-0.00021762344
-1.3679209
-0.1642516
-0.049727546
-0.15896314
0.17081062
-0.15886891
0.28674791
-0.1619517
0.30651077
-0.16677693
0.21648163
-0.17170698
-0.018704619
-0.17312379
-0.17479907
-0.17217959
-0.15680193
-0.26870569
-0.17119704
-0.33445878
-0.17314284
-0.31104204
-0.16962063
-0.21764007
-0.16045681
-0.056529061
-0.14818646
0.11888573
-0.14258706
0.21591285
-0.14755733
0.24415915
-0.15650066
0.2418879
-0.16652785
0.2005197
-0.2158472
0.11748635
-0.24156565
-0.0019453141
-0.25762861
-0.11759944
-0.26188844
-0.15851957
-0.2597296
-0.1440893
-0.25676607
-0.10749333
-0.26509441
-0.071467981
-0.28323244
-0.041529948
-0.3041089
-0.019060608
-0.32937656
-0.0043229628
-0.35863258
0.0044304242
-0.39075244
0.0088673493
-0.4250138
0.010384066
-0.46094519
0.010080169
-0.49828901
0.0087680369
-0.53698656
0.0070296658
-0.57712544
0.0052423068
-0.6189066
0.00361749
-0.66260334
0.0022555198
-0.70853061
0.0011852459
-0.75702431
0.00039374069
-0.80842886
-0.00015271808
-0.86309079
-0.00049492341
-0.9213559
-0.00067412278
-0.98358399
-0.00072746142
-1.0501292
-0.00068634154
-1.1213973
-0.00057602794
-1.1977664
-0.00041583244
-1.2797534
-0.00022135517
-1.3676996
-0.16753475
-0.26542254
-0.16074433
-0.047946356
-0.15685206
0.16879377
-0.15901512
0.28381133
-0.16375865
0.3034925
-0.17018804
0.2149627
-0.17629271
-0.015535708
-0.17787707
-0.16910159
-0.17674407
-0.15216701
-0.33509295
-0.17056287
-0.31563886
-0.16854603
-0.22635358
-0.16090712
-0.066872502
-0.15011337
0.11533155
-0.14463228
0.22272172
-0.14939593
0.25522375
-0.15862193
0.25446923
-0.16908199
0.21685474
-0.18286289
0.12417073
-0.22253158
-0.0054506997
-0.23806027
-0.1322085
-0.24301955
-0.17788264
-0.24252537
-0.16492165
-0.23889724
-0.1249134
-0.23934599
-0.081643024
-0.25491937
-0.048303297
-0.27645909
-0.022447156
-0.30072235
-0.0048254014
-0.32887412
0.0057107786
-0.35991294
0.011152718
-0.39303781
0.013118743
-0.42774848
0.012870713
-0.46373573
0.011365984
-0.50088696
0.0092938467
-0.53925074
0.0071151707
-0.57899831
0.005098816
-0.62038793
0.0033783327
-0.66372615
0.001998499
-0.70934387
0.00095068291
-0.75758125
0.00019887118
-0.80878045
-0.00030393571
-0.86328177
-0.00060580722
-0.92142422
-0.0007510959
-0.98356035
-0.00077784604
-1.0500377
-0.00071714071
-1.1212562
-0.00059323581
-1.197589
-0.00042424798
-1.2795505
-0.0002242674
-1.3674753
-0.16824638
-0.33438132
-0.16535151
-0.26081535
-0.1576176
-0.047180814
-0.15574803
0.16552669
-0.15961327
0.27966594