/*--------------------------------*- C++ -*----------------------------------*\
  =========                 |
  \\      /  F ield         | OpenFOAM: The Open Source CFD Toolbox
   \\    /   O peration     | Website:  https://openfoam.org
    \\  /    A nd           | Version:  8
     \\/     M anipulation  |
\*---------------------------------------------------------------------------*/
FoamFile
{
    version     2.0;
    format      ascii;
    class       volScalarField;
    location    "300.966377299864348";
    object      pMean;
}
// * * * * * * * * * * * * * * * * * * * * * * * * * * * * * * * * * * * * * //

dimensions      [0 2 -2 0 0 0 0];

internalField   nonuniform List<scalar> 
9200
(
0.00017480757
0.0001907909
0.0004345241
0.00020920197
0.00046921793
0.00069157644
0.00023970818
0.00051397542
0.00074511109
0.00089448154
0.0002791892
0.00058258134
0.00081978989
0.00096218941
0.0010610936
0.00032774297
0.00066949404
0.00093036144
0.0010615141
0.0011412403
0.0011763174
0.00038678956
0.00077165226
0.0010695798
0.0012061959
0.0012628362
0.0012655513
0.0012410566
0.00045384194
0.00089039597
0.0012313417
0.0013902729
0.0014376284
0.0014048628
0.0013367988
0.0012570689
0.00052603566
0.0010233371
0.0014192078
0.0016064561
0.0016603886
0.0016030178
0.0014904022
0.0013563001
0.00122591
0.0006006976
0.0011703385
0.0016333064
0.0018569957
0.0019212999
0.0018567711
0.0017071076
0.0015199784
0.0013257426
0.001152264
0.00068439609
0.0013339783
0.0018757067
0.0021369974
0.0022215879
0.0021537688
0.0019858136
0.0017490257
0.0014953513
0.0012497566
0.0010399036
0.00078158338
0.0015164124
0.0021418103
0.0024449058
0.0025547251
0.0024948654
0.0023119423
0.002045385
0.0017310046
0.00142104
0.0011320803
0.0008949898
0.00089043243
0.0017104909
0.0024227509
0.0027754991
0.0029178842
0.0028722756
0.0026864425
0.0023928505
0.0020385779
0.0016572391
0.0013006968
0.00097884621
0.00072260004
0.0010046795
0.0019113569
0.0027143999
0.003122355
0.0033051769
0.0032818048
0.0030998599
0.0027932716
0.0024003261
0.0019689642
0.001531355
0.0011403488
0.00079516977
0.00052925339
0.0011211559
0.0021089731
0.0030115948
0.0034793456
0.0037089398
0.0037160007
0.0035477177
0.0032358656
0.0028193567
0.002337398
0.0018401165
0.0013591437
0.00094500067
0.00058766924
0.00032031443
0.0012266326
0.0023032502
0.0032978774
0.003840698
0.0041207914
0.0041655525
0.0040218944
0.0037163035
0.0032845813
0.0027673141
0.0022074079
0.0016574725
0.001145531
0.00072128873
0.00036185118
0.00010206091
0.0012903308
0.0024861559
0.0035672363
0.0041912899
0.0045332992
0.0046208297
0.0045116681
0.00422561
0.0037917612
0.0032480895
0.0026402788
0.0020152241
0.001425685
0.00089715511
0.0004748404
0.00012418767
-0.00012030487
0.0012848617
0.0026150549
0.0038139501
0.0045149206
0.0049309278
0.0050731161
0.0050067752
0.004751994
0.0043311143
0.0037756442
0.0031287407
0.0024423128
0.0017651541
0.0011512303
0.00061972797
0.00021232821
-0.00011987052
-0.00034111249
0.001183962
0.0026568912
0.0039976221
0.0048051495
0.0052890132
0.005507133
0.0054972948
0.0052852225
0.0048908135
0.0043397427
0.0036692932
0.0029295656
0.0021769813
0.001463282
0.00083976638
0.00032011628
-6.054177e-05
-0.00036440794
-0.00055557566
0.00096020802
0.0026006651
0.0040744047
0.0050182889
0.0055975779
0.0058935613
0.0059667982
0.00581424
0.0054606742
0.0049290931
0.0042517567
0.0034744359
0.0026532178
0.0018496295
0.0011150295
0.00049832356
4.361092e-06
-0.00033747818
-0.00060441466
-0.00075909471
0.0006248107
0.0024415674
0.0040133642
0.0050906887
0.0058192942
0.0062179595
0.0063858668
0.0063214486
0.0060283694
0.0055335658
0.0048658723
0.0040673549
0.0031925159
0.0023040056
0.0014652733
0.00072746003
0.00013319167
-0.00032077115
-0.00061308844
-0.00083489943
-0.00094790191
0.00024266047
0.0021521776
0.0037702194
0.0049830228
0.0058819089
0.0064550705
0.0067320208
0.0067794745
0.0065765464
0.006140307
0.0055016275
0.0046994694
0.0037865849
0.0028266967
0.0018862006
0.0010308566
0.00030705246
-0.00024838243
-0.0006493667
-0.00088186534
-0.0010516393
-0.0011186143
-0.00012230905
0.0017155581
0.0033028257
0.004655676
0.0057340504
0.0065290807
0.0069858141
0.0071547892
0.007079527
0.0067317562
0.0061460519
0.0053610298
0.0044280517
0.0034110131
0.0023802662
0.0014061626
0.00055281684
-0.0001385345
-0.00063988819
-0.00097518866
-0.0011390539
-0.0012507968
-0.001268269
-0.00046874233
0.0011834659
0.0026043982
0.0040605075
0.0053398364
0.00637068
0.0070749751
0.0074295729
0.0074958462
0.0072833643
0.0067816619
0.0060390655
0.0051076932
0.0040511556
0.0029424758
0.0018585241
0.00087004811
3.8995325e-05
-0.00060227711
-0.0010343208
-0.0012927276
-0.0013801488
-0.0014292849
-0.0013943377
-0.00080474444
0.00057570623
0.0017320955
0.0031901914
0.0046521273
0.0059410869
0.0069117855
0.0075453378
0.0078034154
0.0077514244
0.0073840241
0.0067161458
0.0058127911
0.0047388082
0.0035689429
0.0023851101
0.0012670643
0.00028582497
-0.00050321482
-0.001076426
-0.001425386
-0.0015966544
-0.0016014439
-0.0015847405
-0.0014951988
-0.0011310202
-9.6507308e-05
0.00074444669
0.0021110743
0.0036520568
0.005187025
0.0064495963
0.0073988154
0.0079549637
0.0081034229
0.0079100409
0.0073679677
0.0065257881
0.0054616136
0.0042524318
0.002983994
0.0017436149
0.00061355546
-0.00033879747
-0.0010652136
-0.0015538663
-0.00180683
-0.0018826032
-0.0017997731
-0.0017151275
-0.0015702449
-0.0014416029
-0.00079924266
-0.00032431757
0.00088498814
0.0023859234
0.0040752433
0.0056345736
0.0069249528
0.0078439561
0.0082999414
0.0083169328
0.0079540947
0.0072226128
0.006202247
0.0049812908
0.0036491032
0.0022996882
0.001024877
-9.4208232e-05
-0.00099459484
-0.0016389914
-0.0020272403
-0.0021732798
-0.0021466483
-0.0019724403
-0.0018184817
-0.0016189672
-0.0017281042
-0.0015077565
-0.0014387513
-0.00044720707
0.00093527484
0.0026436833
0.0044212385
0.006072307
0.0073821917
0.0082419796
0.0085690517
0.0084216495
0.0078664136
0.006937264
0.0057391506
0.0043702555
0.0029307632
0.0015219402
0.00023646583
-0.00084664472
-0.0016728646
-0.002216154
-0.0024898985
-0.0025194271
-0.0023852009
-0.0021175749
-0.0018936421
-0.0016408558
-0.0019844987
-0.0022036836
-0.0025644697
-0.0018432894
-0.00064662085
0.00098409692
0.0028369033
0.0047837962
0.0065158348
0.0078155418
0.0085763102
0.0087341476
0.0083976802
0.0076312044
0.0065022643
0.0051315981
0.0036283723
0.0021021743
0.0006577623
-0.00061207898
-0.0016342738
-0.0023639748
-0.0027889445
-0.0029354139
-0.0028407216
-0.0025952102
-0.0022340548
-0.0019404711
-0.0016361037
-0.0022085473
-0.0028734368
-0.0036746499
-0.0032612139
-0.0023139594
-0.00083832527
0.00097809992
0.0030705687
0.0051789855
0.0069563481
0.0082097102
0.0088134613
0.0087729996
0.0082245038
0.0072368004
0.0059102868
0.0043775005
0.0027585559
0.0011691508
-0.00028375444
-0.0015108388
-0.0024465894
-0.0030587936
-0.0033493206
-0.0033581345
-0.0031333332
-0.0027745038
-0.0023207339
-0.0019591151
-0.001605518
-0.0024195192
-0.0035120361
-0.0047463466
-0.0046647612
-0.0040165006
-0.0027681737
-0.0010792488
0.0010251353
0.0033672754
0.0055982342
0.0073851246
0.0085227385
0.0089248494
0.0086637535
0.0078864098
0.0066733452
0.0051563677
0.0034778495
0.0017656567
0.00014029772
-0.0012926411
-0.0024485956
-0.0032733377
-0.0037479377
-0.0038901426
-0.0037528344
-0.0033943583
-0.0029217492
-0.0023772241
-0.0019500305
-0.0015499931
-0.0026271894
-0.0041649768
-0.005764227
-0.0060234175
-0.0057084782
-0.0047469752
-0.0032698139
-0.0012572651
0.001160775
0.0037198819
0.0060379422
0.0077548722
0.0087204253
0.0088861472
0.0083860068
0.0073682261
0.0059330807
0.0042394529
0.0024359731
0.0006572285
-0.000974835
-0.0023572105
-0.0034140908
-0.0041036436
-0.0044228093
-0.0044047041
-0.0041151066
-0.0036212844
-0.0030360124
-0.0024037055
-0.0019139709
-0.0014705189
-0.0028095752
-0.0048363549
-0.0067898287
-0.0073173356
-0.0073521039
-0.0067208441
-0.0055260581
-0.0037008409
-0.0013291625
0.0013863587
0.0041259722
0.0064405708
0.0080260916
0.0087707559
0.0086755848
0.0079219992
0.0066590863
0.0050124895
0.0031609065
0.0012580427
-0.00055779143
-0.0021646226
-0.0034654152
-0.004395203
-0.0049272585
-0.0050750289
-0.0048871661
-0.00444104
-0.0038121577
-0.0031168515
-0.0024006888
-0.0018520018
-0.0013682732
-0.0029647358
-0.005483849
-0.0078360922
-0.0086281739
-0.0089200196
-0.0086423769
-0.0077851461
-0.0062308682
-0.0040104835
-0.0012804861
0.0016991808
0.0045258687
0.0067623221
0.0081632042
0.0086457787
0.0082721565
0.0072583231
0.0057522319
0.0039113894
0.0019254153
-4.7777024e-05
-0.0018680708
-0.0034164402
-0.0046040138
-0.0053800236
-0.0057339932
-0.0056971888
-0.0053322912
-0.0047276738
-0.0039656635
-0.0031644301
-0.002369015
-0.0017654043
-0.0012446995
-0.003093364
-0.006093664
-0.0088455618
-0.0099734548
-0.010500421
-0.010476477
-0.0099895164
-0.0087752793
-0.0068011501
-0.004176083
-0.0011126275
0.0020403673
0.004866762
0.0069622499
0.0081334004
0.0083211855
0.0076605413
0.006384159
0.0046449062
0.0026323064
0.00053989984
-0.0014712738
-0.0032611295
-0.0047161242
-0.0057597334
-0.0063565012
-0.0065145655
-0.0062822631
-0.0057358719
-0.0049729053
-0.0040812253
-0.0031792319
-0.0023098066
-0.0016556298
-0.0011013894
-0.0031958416
-0.0066502027
-0.0097972004
-0.011282618
-0.012117941
-0.012320718
-0.01209799
-0.011266168
-0.009621215
-0.0072073583
-0.0041980683
-0.00088952834
0.0023502409
0.0051027801
0.0070091486
0.007906427
0.0077761991
0.0068277857
0.0052923077
0.0033382945
0.0011804487
-0.00098627178
-0.0030000292
-0.0047223673
-0.0060491986
-0.0069187393
-0.0073133416
-0.0072600477
-0.0068242909
-0.0060943992
-0.0051753882
-0.0041588865
-0.0031620457
-0.0022243993
-0.0015242368
-0.00093997825
-0.0032724611
-0.0071364226
-0.010667877
-0.012528302
-0.013696123
-0.014204966
-0.014204755
-0.01365181
-0.012393148
-0.010286825
-0.0074535783
-0.0041423787
-0.000677844
0.0025768768
0.0052047206
0.006873632
0.0074545638
0.0069978113
0.0057651595
0.0039807879
0.001835885
-0.00043599055
-0.0026420654
-0.0046196549
-0.0062362799
-0.0074003676
-0.0080676138
-0.0082395201
-0.007962635
-0.0073181289
-0.0064053416
-0.005334447
-0.0041992166
-0.0031140826
-0.0021142761
-0.0013728701
-0.00076217277
-0.0033248041
-0.0075379206
-0.011433397
-0.01367847
-0.01520313
-0.01604598
-0.016357454
-0.016032345
-0.0150551
-0.013328102
-0.010779428
-0.0076044324
-0.004077029
-0.00052377847
0.0026930638
0.005137608
0.0065213535
0.0067570438
0.0059755986
0.0044658837
0.0024492674
0.00014458879
-0.0022067285
-0.0044131689
-0.0063140609
-0.0077861634
-0.0087542946
-0.0091931143
-0.0091248957
-0.008615253
-0.0077597883
-0.0066668913
-0.0054500606
-0.0042032016
-0.0030368257
-0.0019810966
-0.0012032388
-0.00056966893
-0.0033549293
-0.007844373
-0.012073718
-0.014698304
-0.01659943
-0.01780858
-0.018460866
-0.018464578
-0.017707067
-0.016260012
-0.014080602
-0.011166084
-0.0077264643
-0.0040486308
-0.00045685554
0.0026564459
0.0048598534
0.0059215763
0.0057992824
0.0047024378
0.0029299168
0.00070352304
-0.0017263318
-0.0041190992
-0.0062837891
-0.0080656301
-0.0093550489
-0.010095537
-0.010282764
-0.0099601485
-0.0092120183
-0.008146123
-0.0068781298
-0.0055226906
-0.0041722209
-0.0029319581
-0.0018267056
-0.0010170826
-0.00036409996
-0.0033613327
-0.0080513962
-0.012571146
-0.015558294
-0.017841849
-0.019446227
-0.020475197
-0.020841986
-0.020423629
-0.019181001
-0.017275639
-0.014719511
-0.011509026
-0.0078675912
-0.0040878757
-0.00052124183
0.0024209557
0.0043415782
0.0050517488
0.0045748263
0.0031776246
0.0011573867
-0.0012493699
-0.0037661539
-0.0061576281
-0.0082357658
-0.0098557085
-0.010925351
-0.011409063
-0.011324743
-0.010737314
-0.0097479793
-0.0084750292
-0.0070387945
-0.0055533277
-0.004107914
-0.0028013361
-0.0016530145
-0.00081615137
-0.00014710662
-0.0081496797
-0.0033388856
-0.012909489
-0.016237743
-0.018893915
-0.02090595
-0.022346517
-0.023119633
-0.023082029
-0.022184406
-0.020466156
-0.018170918
-0.015305396
-0.011855951
-0.0080606443
-0.0042422696
-0.00076225936
0.0019569011
0.0035594078
0.0039046163
0.0030803018
0.0013982033
-0.00084974338
-0.0033995446
-0.0059604968
-0.0083043103
-0.010249566
-0.011665136
-0.012479784
-0.012680495
-0.012308477
-0.011449351
-0.010219466
-0.0087451961
-0.0071493273
-0.0055433548
-0.00401213
-0.0026469562
-0.0014618883
-0.00060218991
7.96383e-05
-0.013074302
-0.0081270998
-0.0032872897
-0.016716597
-0.019730026
-0.022142324
-0.024011604
-0.025234983
-0.025632704
-0.025128134
-0.023755585
-0.021628874
-0.019005349
-0.015885017
-0.012241574
-0.0083536064
-0.0045535094
-0.001219882
0.0012312372
0.002502678
0.0024740127
0.0013146267
-0.00063765068
-0.0030850772
-0.0057333389
-0.0082917991
-0.010539041
-0.012304005
-0.013474292
-0.014001199
-0.013896358
-0.013224454
-0.0120906
-0.010623842
-0.0089562359
-0.0072107384
-0.005494584
-0.0038869387
-0.0024709001
-0.001255164
-0.00037685857
0.00031463649
-0.016967881
-0.013061072
-0.0079837567
-0.0032126708
-0.020323967
-0.023124244
-0.025417302
-0.027113726
-0.028003281
-0.027958844
-0.026991247
-0.025200707
-0.022724613
-0.019833877
-0.016492838
-0.01271336
-0.0087891508
-0.0050725189
-0.001938423
0.00023534729
0.0011589479
0.00075338962
-0.00072601061
-0.0029265417
-0.0055363451
-0.0082341776
-0.010739839
-0.012839712
-0.014377644
-0.015263434
-0.015473352
-0.015044389
-0.014064567
-0.012656535
-0.010959548
-0.0091085312
-0.0072246636
-0.0054091534
-0.0037345548
-0.0022752855
-0.0010347156
-0.00014187018
0.00055642358
-0.020639941
-0.016982052
-0.012871414
-0.00773229
-0.0031219091
-0.023820288
-0.026528106
-0.028692617
-0.030105552
-0.030594094
-0.030112884
-0.028731379
-0.026574986
-0.023804187
-0.020678854
-0.01717499
-0.013320553
-0.0094290802
-0.0058447994
-0.0029121442
-0.0010348062
-0.0004872332
-0.0012621251
-0.0030432994
-0.005462956
-0.0081874415
-0.010883301
-0.013282261
-0.015182985
-0.016448557
-0.017013409
-0.01688081
-0.016113652
-0.014822088
-0.013143994
-0.011225982
-0.0092032934
-0.0071931683
-0.0052894249
-0.0035572484
-0.0020621734
-0.00080235624
0.00010122852
0.00080364467
-0.024187469
-0.020668772
-0.016758724
-0.012511204
-0.0073830719
-0.0030159084
-0.027306974
-0.029930575
-0.031865749
-0.032931585
-0.033027827
-0.032152495
-0.0303969
-0.027919672
-0.024896118
-0.021591966
-0.017989259
-0.014130287
-0.010315688
-0.0068565582
-0.0041422412
-0.002597298
-0.0024398686
-0.0035760893
-0.005635237
-0.0082340009
-0.011019298
-0.013657467
-0.015894676
-0.017544721
-0.018494699
-0.018705765
-0.018209583
-0.017094723
-0.01549181
-0.013551082
-0.011423551
-0.009242277
-0.0071186339
-0.0051378567
-0.0033573222
-0.0018335435
-0.00055985521
0.00035096745
0.0010551219
-0.027705551
-0.024214346
-0.020409114
-0.016306749
-0.011996083
-0.0069449755
-0.0028902018
-0.030787084
-0.033237582
-0.034885765
-0.035618123
-0.035359643
-0.034120003
-0.032026005
-0.029267053
-0.026041667
-0.022634044
-0.019006088
-0.015184576
-0.011433274
-0.0081104788
-0.005655823
-0.0044610745
-0.0047123595
-0.0061902501
-0.0084941248
-0.011222211
-0.014009291
-0.01653204
-0.018551094
-0.01990074
-0.02049448
-0.020323016
-0.019446913
-0.017979651
-0.016069813
-0.013877048
-0.011553507
-0.0092277505
-0.0070036578
-0.0049569843
-0.0031371259
-0.0015914555
-0.00030888681
0.00060597511
0.0013097674
-0.031209168
-0.027710606
-0.02389943
-0.01986908
-0.015653149
-0.011344524
-0.0064310824
-0.0027427853
-0.034177456
-0.036401771
-0.03778443
-0.038217405
-0.037626911
-0.036048352
-0.033647087
-0.030657494
-0.027315555
-0.023883007
-0.020270308
-0.01646475
-0.012779505
-0.0096356898
-0.0074664372
-0.0066593619
-0.0073102954
-0.0091014364
-0.011603702
-0.014404954
-0.017132515
-0.0194801
-0.02122492
-0.022226461
-0.022427129
-0.021849113
-0.020581839
-0.018762197
-0.016553779
-0.014122273
-0.011617851
-0.0091623642
-0.0068510249
-0.0047494756
-0.0028990542
-0.0013379257
-5.0921253e-05
0.00086508058
0.001566519
-0.034627333
-0.03118301
-0.027322784
-0.023252455
-0.019083835
-0.014819735
-0.010574355
-0.0058527235
-0.0025740422
-0.037432592
-0.039463492
-0.040612338
-0.040763484
-0.03985642
-0.037961863
-0.035302345
-0.032170092
-0.028796291
-0.025387889
-0.021760693
-0.017967201
-0.014376905
-0.01144027
-0.0096002789
-0.0092029478
-0.010232145
-0.012297399
-0.01494455
-0.017756312
-0.020361796
-0.022473213
-0.023889377
-0.024497732
-0.024272963
-0.023269515
-0.021605145
-0.019437844
-0.01694284
-0.014288093
-0.011619091
-0.0090490837
-0.0066637823
-0.0045182168
-0.0026454955
-0.001074634
0.0002128689
0.0011272116
0.0018242705
-0.037919209
-0.034573419
-0.030710381
-0.026553595
-0.022316803
-0.018080692
-0.013827423
-0.0097041767
-0.0052252894
-0.0023827364
-0.040604277
-0.042472464
-0.043399415
-0.04327621
-0.042066631
-0.039900592
-0.037067165
-0.033883887
-0.030531927
-0.027135393
-0.023472609
-0.01970766
-0.016234521
-0.013545835
-0.012067074
-0.012096937
-0.013468795
-0.015759402
-0.018492281
-0.021248734
-0.023668156
-0.025482527
-0.026517489
-0.02669125
-0.026013496
-0.024571501
-0.022509556
-0.020003727
-0.017237326
-0.014376594
-0.01156019
-0.0088913153
-0.0064453569
-0.0042660741
-0.0023783028
-0.00080272414
0.00048124262
0.0013909019
0.002081994
-0.041145237
-0.037847484
-0.034019238
-0.029806133
-0.025452934
-0.021124992
-0.016883916
-0.012703564
-0.0087575105
-0.0045654923
-0.0021705182
-0.043740509
-0.045453573
-0.046160019
-0.045766024
-0.044294274
-0.041941415
-0.039029725
-0.035851965
-0.032522719
-0.029094329
-0.025405309
-0.021696884
-0.018384177
-0.015978991
-0.014893267
-0.0153338
-0.017006528
-0.019465701
-0.022219709
-0.024853217
-0.02702086
-0.028478775
-0.029082285
-0.028784851
-0.027632172
-0.025744211
-0.023289654
-0.020458642
-0.017438554
-0.014390587
-0.011444797
-0.0086930993
-0.0061991437
-0.0039950716
-0.0020985836
-0.00052372561
0.00075191364
0.0016544051
0.0023393607
-0.04435463
-0.041073502
-0.037223341
-0.032982389
-0.028526808
-0.024058486
-0.019706321
-0.015527922
-0.011481466
-0.007757064
-0.0038874093
-0.001959135
-0.046863458
-0.048415338
-0.048894214
-0.048265139
-0.046618142
-0.044176216
-0.041250282
-0.038092675
-0.03473174
-0.031269853
-0.027578046
-0.023972704
-0.020860936
-0.018776077
-0.018089394
-0.018898632
-0.020825846
-0.023389404
-0.026097119
-0.028538373
-0.030388497
-0.031432152
-0.031557695
-0.03075748
-0.029114349
-0.026779174
-0.023941871
-0.020802744
-0.017548754
-0.014333963
-0.011277571
-0.0084583787
-0.0059272943
-0.0037062459
-0.0018083947
-0.00024136791
0.0010222342
0.001917984
0.0026094836
-0.047564675
-0.044301879
-0.040394711
-0.036064764
-0.031525067
-0.026915513
-0.0224046
-0.01810369
-0.014055102
-0.010192063
-0.0067228287
-0.0032317226
-0.0017396428
-0.049974956
-0.05134726
-0.05162821
-0.050854726
-0.049134636
-0.046671745
-0.043753929
-0.04056066
-0.037146204
-0.033684417
-0.030033619
-0.026573701
-0.023691918
-0.021931565
-0.021640715
-0.022773847
-0.024900504
-0.027501843
-0.030092941
-0.032271488
-0.033739478
-0.034312823
-0.033918694
-0.032590198
-0.030447506
-0.027669958
-0.024464384
-0.021037374
-0.017571619
-0.014211761
-0.011063031
-0.0081893791
-0.0056307348
-0.0034024515
-0.0015134707
4.0287503e-05
0.0012940104
0.0021999821
0.0028959523
-0.050772057
-0.047545591
-0.0435857
-0.039127886
-0.034437899
-0.029696515
-0.025013041
-0.020543096
-0.016368417
-0.012503501
-0.0088613212
-0.0057088404
-0.0025938354
-0.0014905361
-0.053053854
-0.054266817
-0.054446521
-0.053635922
-0.051913779
-0.049465676
-0.046499201
-0.043217731
-0.039806998
-0.036377458
-0.032813098
-0.029514166
-0.02685947
-0.025426949
-0.025532114
-0.026939545
-0.029204199
-0.031774181
-0.034174945
-0.036019386
-0.037041086
-0.037091778
-0.036141589
-0.034266132
-0.031621489
-0.028411902
-0.024857065
-0.021165676
-0.017512639
-0.014028976
-0.010803397
-0.0078868622
-0.0053134422
-0.0030921137
-0.0012194584
0.00032603006
0.0015942922
0.0024979651
0.0031917955
-0.053943523
-0.050792585
-0.046805909
-0.042226178
-0.037342348
-0.032397916
-0.027543824
-0.022880735
-0.018535518
-0.01454549
-0.010902575
-0.007560214
-0.0047007852
-0.0019286295
-0.0012136126
-0.056107508
-0.057262963
-0.05745206
-0.056680041
-0.05500477
-0.05252195
-0.049439545
-0.046106522
-0.042745921
-0.039391012
-0.035927326
-0.032785282
-0.030354741
-0.029280422
-0.029737358
-0.031373928
-0.033707048
-0.036174614
-0.038308298
-0.039747782
-0.040260359
-0.039740659
-0.038204646
-0.035770577
-0.032628258
-0.029002355
-0.025122216
-0.021193134
-0.017377329
-0.013787762
-0.010499183
-0.0075562551
-0.0049872501
-0.0027826287
-0.00091743757
0.00065864002
0.0019082538
0.0028071958
0.0034963074
-0.057077092
-0.053998065
-0.050034267
-0.045364997
-0.040294227
-0.035098096
-0.029999159
-0.025138456
-0.020590608
-0.016434
-0.012669593
-0.009334693
-0.0062657398
-0.0036391834
-0.0012426172
-0.00091514279
-0.059229946
-0.060437449
-0.060717528
-0.060045142
-0.058383996
-0.055782156
-0.052606597
-0.049261915
-0.046002869
-0.04274606
-0.039371916
-0.036377828
-0.034200007
-0.033486826
-0.03423408
-0.036050612
-0.038380646
-0.04066915
-0.042457826
-0.043421012
-0.043365113
-0.042232672
-0.040088045
-0.037091154
-0.033461926
-0.029441869
-0.025264973
-0.021125423
-0.017167377
-0.013488252
-0.010157548
-0.0072135647
-0.0046615117
-0.0024595897
-0.00054409893
0.0010041047
0.0022360653
0.0031257797
0.0038095777
-0.060272754
-0.057154002
-0.053211697
-0.048514369
-0.043294875
-0.037852352
-0.032457185
-0.027324081
-0.022565435
-0.01820416
-0.014278865
-0.01083397
-0.0077665669
-0.0049030477
-0.0025382279
-0.00055003617
-0.00060371026
-0.06251783
-0.063863783
-0.064306442
-0.063722256
-0.061985014
-0.059272276
-0.056044415
-0.052743938
-0.049597506
-0.046439388
-0.043130509
-0.040290861
-0.038371083
-0.038012005
-0.039009092
-0.040942098
-0.043194348
-0.045221184
-0.04658657
-0.047002848
-0.046323556
-0.044542787
-0.041774091
-0.038217895
-0.034120115
-0.029734953
-0.02529078
-0.020963691
-0.016882228
-0.013139592
-0.0097995785
-0.0068703418
-0.0043147936
-0.0020328075
-0.00015858436
0.0013666357
0.0025735803
0.0034542968
0.0041311446
-0.063617699
-0.060361381
-0.056329936
-0.051601836
-0.04630424
-0.040659741
-0.034971951
-0.029514841
-0.024471609
-0.01989609
-0.015767091
-0.012171892
-0.0089984942
-0.0061157553
-0.0034912824
-0.0014195406
0.000131731
-0.00028380557
-0.066043128
-0.067610303
-0.068224144
-0.067647174
-0.065824355
-0.063043541
-0.059807148
-0.056554182
-0.053521216
-0.05045088
-0.04718877
-0.04448186
-0.042852701
-0.042834006
-0.044042084
-0.046021246
-0.048114224
-0.049793358
-0.050655853
-0.050457239
-0.049104689
-0.046647022
-0.043247745
-0.039144989
-0.034605418
-0.029886398
-0.025199709
-0.020706508
-0.016533332
-0.012768942
-0.009439414
-0.0064964731
-0.0038227322
-0.0015937661
0.00024818173
0.0017385006
0.0029218513
0.0037917705
0.004460846
-0.067185124
-0.063703755
-0.059486678
-0.054621206
-0.049239534
-0.0434697
-0.037540064
-0.031762966
-0.026385331
-0.021522484
-0.017180398
-0.013386413
-0.010066746
-0.0070702608
-0.0044079001
-0.0020607186
-0.00031110344
0.00077731158
4.6418105e-05
-0.069876429
-0.071692572
-0.072416467
-0.071820232
-0.069964627
-0.067149746
-0.063918177
-0.060690648
-0.057757445
-0.054761147
-0.051499669
-0.048967453
-0.047669442
-0.047934184
-0.049313963
-0.051257098
-0.053102783
-0.054346497
-0.054625826
-0.053748088
-0.051678356
-0.048524045
-0.044498697
-0.039871984
-0.034921651
-0.02989454
-0.024988698
-0.020367623
-0.016155074
-0.012393528
-0.0090362051
-0.0059250318
-0.0033172097
-0.0011282517
0.0006634547
0.0021218601
0.0032795481
0.0041381653
0.0047982636
-0.071040804
-0.067253535
-0.062762429
-0.057665273
-0.052099941
-0.046193659
-0.040100923
-0.034060789
-0.028356108
-0.023158678
-0.018527307
-0.014529423
-0.011015844
-0.0078631132
-0.0050823069
-0.0026813368
-0.00064888828
0.00075110839
0.0013504952
0.00039165922
-0.074040312
-0.076067835
-0.07687295
-0.076318141
-0.074460883
-0.071621
-0.068368012
-0.065135492
-0.062288219
-0.059322361
-0.056075991
-0.053757048
-0.052797685
-0.053307685
-0.054797356
-0.056615306
-0.0581203
-0.058838612
-0.058455711
-0.056838324
-0.054016021
-0.050158044
-0.045523037
-0.040399892
-0.035064593
-0.029753993
-0.024674173
-0.019989862
-0.0157684
-0.011959382
-0.0083699026
-0.0053378361
-0.002778904
-0.00065559803
0.0010908624
0.0025148834
0.0036466397
0.0044927531
0.0051430929
-0.075215669
-0.071071937
-0.066232058
-0.06081462
-0.054969922
-0.048837122
-0.04256509
-0.036340046
-0.030370867
-0.024850737
-0.019892545
-0.015611157
-0.011890572
-0.0085400524
-0.0056016211
-0.0030818574
-0.00098363356
0.0006996394
0.0017282807
0.001841878
0.0007464986
-0.078514338
-0.080731104
-0.081678141
-0.081201753
-0.079347445
-0.076453367
-0.07313724
-0.069847471
-0.067050168
-0.06410948
-0.060873611
-0.05883151
-0.058217905
-0.058945556
-0.060461818
-0.062059
-0.063124887
-0.063224741
-0.062102411
-0.059691727
-0.056094948
-0.051540536
-0.046317767
-0.040721038
-0.035025499
-0.029483599
-0.024309062
-0.019598714
-0.01530328
-0.011180924
-0.0076838267
-0.0047100884
-0.0022354911
-0.00017048158
0.0015279834
0.002917532
0.0040222038
0.00485517
0.0054949507
-0.07971637
-0.075200293
-0.069957729
-0.06414528
-0.057933251
-0.051475803
-0.044945066
-0.038515286
-0.032357143
-0.026582083
-0.021311498
-0.01671024
-0.012706446
-0.0091454562
-0.0060125347
-0.0033400437
-0.0011256858
0.0006305789
0.0019399566
0.0025847525
0.0022392694
0.0010520834
-0.083303967
-0.085765897
-0.086901489
-0.086508605
-0.08462549
-0.081627005
-0.078184215
-0.074802208
-0.072016959
-0.069062238
-0.065893187
-0.064232048
-0.063928808
-0.064831151
-0.066273631
-0.067547849
-0.068069778
-0.067456824
-0.065521761
-0.062277892
-0.057901104
-0.052664065
-0.046869084
-0.040822149
-0.034825678
-0.029148055
-0.023924061
-0.019104556
-0.014393257
-0.010376818
-0.0069478856
-0.0040801123
-0.001679561
0.00032416079
0.0019746579
0.0033287892
0.0044057693
0.0052247877
0.0058535352
-0.084559771
-0.079657331
-0.073985441
-0.067717621
-0.061062994
-0.05419485
-0.047308814
-0.040605766
-0.034237629
-0.028279099
-0.022759293
-0.01787431
-0.013541395
-0.0096980793
-0.0063580761
-0.0035022213
-0.0011440799
0.00072431248
0.0021109609
0.0030318982
0.0032676629
0.0024962837
0.0012498045
-0.088490268
-0.091248604
-0.092582091
-0.092246793
-0.090277202
-0.08709724
-0.083470369
-0.079935378
-0.077140301
-0.0741679
-0.071225459
-0.069986913
-0.069930255
-0.070931957
-0.072195368
-0.073035314
-0.072902332
-0.071483313
-0.068674936
-0.064576037
-0.05942097
-0.053506586
-0.047157631
-0.040726681
-0.034543505
-0.028785032
-0.023405793
-0.018041627
-0.013449273
-0.0095114575
-0.0062136704
-0.0034377556
-0.0011146231
0.00082817702
0.0024298413
0.0037480105
0.004796609
0.0056014308
0.0062182699
-0.089820337
-0.084472123
-0.078337216
-0.071585888
-0.064418087
-0.057064839
-0.049741145
-0.042671896
-0.036035882
-0.029874737
-0.024174825
-0.019059159
-0.014434713
-0.01026977
-0.0066601993
-0.0036075456
-0.0010829826
0.00091625042
0.0024101192
0.0034069629
0.0039117603
0.0037266328
0.0026302222
0.0013315266
-0.094147051
-0.097220703
-0.098736553
-0.09839885
-0.0962562
-0.092821551
-0.088932355
-0.085220681
-0.082382935
-0.079499924
-0.076913255
-0.076060078
-0.076211743
-0.077218851
-0.078185388
-0.078465921
-0.077564898
-0.075256838
-0.071533311
-0.066564899
-0.060623084
-0.054039132
-0.047208766
-0.040528934
-0.034224035
-0.028251991
-0.022166508
-0.016933594
-0.012430268
-0.0086530431
-0.0054675033
-0.0027872254
-0.00054070652
0.0013404195
0.0028926868
0.0041744978
0.0051948391
0.0059843183
0.0065887547
-0.09556328
-0.089710996
-0.083042007
-0.075771915
-0.068057515
-0.0601449
-0.052311741
-0.04480006
-0.037807124
-0.031391629
-0.025492653
-0.020206871
-0.015349883
-0.010899798
-0.0069815191
-0.0036805123
-0.00097540327
0.0011683632
0.0027757312
0.0038667733
0.0044378051
0.0045157321
0.0039671724
0.0026684257
0.0013219701
-0.10031466
-0.1037029
-0.10535189
-0.10491883
-0.10251208
-0.098729621
-0.0945114
-0.090621363
-0.087737016
-0.08506427
-0.082964854
-0.082436339
-0.0827622
-0.083654272
-0.084189555
-0.083776849
-0.082002117
-0.078740682
-0.074066896
-0.068201147
-0.061465891
-0.054288603
-0.047135224
-0.040282878
-0.033688955
-0.026810939
-0.020867549
-0.01573368
-0.011425021
-0.0077833375
-0.0047144224
-0.0021283131
4.0906501e-05
0.0018599161
0.0033626565
0.0046088797
0.0055990358
0.0063728548
0.0069645156
-0.1018317
-0.095440478
-0.088171241
-0.080306616
-0.072012624
-0.063495401
-0.055079287
-0.047058096
-0.039640695
-0.032888484
-0.026740884
-0.021271954
-0.016225356
-0.011548882
-0.0073616628
-0.0037748029
-0.00084814197
0.0014568255
0.0031785821
0.0043599181
0.0050032051
0.0051546239
0.0048554992
0.0040271564
0.0026142205
0.0012466793
-0.10701859
-0.11068878
-0.11238365
-0.11175096
-0.10897462
-0.10475544
-0.10017012
-0.096118914
-0.093230857
-0.090989679
-0.089406396
-0.089137778
-0.089551077
-0.090186136
-0.090141353
-0.088906385
-0.086169497
-0.081894685
-0.076217354
-0.069428729
-0.061975458
-0.054389101
-0.047001641
-0.039766512
-0.032019562
-0.025291599
-0.01945605
-0.014556224
-0.010409403
-0.0069084256
-0.0039538446
-0.001462423
0.00062914688
0.0023863895
0.0038411044
0.0050491352
0.0060085035
0.0067662843
0.0073451101
-0.10865149
-0.10170278
-0.09379008
-0.085256487
-0.076308679
-0.06715216
-0.058104561
-0.049504219
-0.041601008
-0.034455588
-0.027984761
-0.022277153
-0.017041717
-0.012166828
-0.0077634398
-0.0039307515
-0.00074897996
0.0017467037
0.0036035985
0.0048606713
0.0055722188
0.0057830941
0.0055743602
0.0049771418
0.0039503201
0.00247706
0.0011325603
-0.11425749
-0.11814369
-0.11977822
-0.11882565
-0.11556939
-0.11085123
-0.10587814
-0.10171153
-0.098953892
-0.097351262
-0.096218811
-0.096165239
-0.096531452
-0.096749063
-0.095973576
-0.093802406
-0.090016187
-0.084642761
-0.077910472
-0.070270747
-0.062310626
-0.054417818
-0.046532905
-0.037840841
-0.030248302
-0.02363431
-0.018077962
-0.013369516
-0.0093908234
-0.0060271792
-0.0031872558
-0.00079067333
0.0012240294
0.0029221797
0.0043250797
0.0054944335
0.0064222974
0.0071639872
0.0077300866
-0.1160358
-0.1085281
-0.099940681
-0.090688967