/*--------------------------------*- C++ -*----------------------------------*\
  =========                 |
  \\      /  F ield         | OpenFOAM: The Open Source CFD Toolbox
   \\    /   O peration     | Website:  https://openfoam.org
    \\  /    A nd           | Version:  8
     \\/     M anipulation  |
\*---------------------------------------------------------------------------*/
FoamFile
{
    version     2.0;
    format      ascii;
    class       volScalarField;
    location    "300.966377299864348";
    object      pPrime2Mean;
}
// * * * * * * * * * * * * * * * * * * * * * * * * * * * * * * * * * * * * * //

dimensions      [0 4 -4 0 0 0 0];

internalField   nonuniform List<scalar> 
9200
(
6.7613776e-07
6.7175444e-07
3.9672882e-06
6.5410991e-07
3.8964208e-06
1.0959952e-05
6.4355438e-07
3.7400124e-06
1.0761076e-05
2.0729841e-05
6.3162184e-07
3.5838394e-06
1.0342166e-05
2.0318218e-05
3.3999904e-05
6.3505716e-07
3.4107754e-06
9.9002271e-06
1.949161e-05
3.3293959e-05
5.0412551e-05
6.5734383e-07
3.2782355e-06
9.4182267e-06
1.8593505e-05
3.1896463e-05
4.9314173e-05
7.029572e-05
7.1807734e-07
3.1922841e-06
9.0236511e-06
1.7625539e-05
3.0342092e-05
4.7163026e-05
6.8697135e-05
9.3765235e-05
8.4276825e-07
3.1892749e-06
8.7458053e-06
1.6807111e-05
2.8657573e-05
4.4733677e-05
6.558638e-05
9.1543848e-05
0.00012115323
1.094379e-06
3.2959297e-06
8.6712632e-06
1.618769e-05
2.7170098e-05
4.2093237e-05
6.203715e-05
8.7243462e-05
0.00011817082
0.00015277765
1.5989567e-06
3.5651942e-06
8.8665448e-06
1.5883204e-05
2.5953674e-05
3.9697624e-05
5.8174608e-05
8.2301033e-05
0.00011242256
0.0001488771
0.00018907633
2.5380305e-06
4.0557213e-06
9.41909e-06
1.5972164e-05
2.5156409e-05
3.7651129e-05
5.4611235e-05
7.6926629e-05
0.00010578183
0.00014139049
0.00018407791
0.00023049379
4.172273e-06
4.8464878e-06
1.0431082e-05
1.6545573e-05
2.4848555e-05
3.6134973e-05
5.1494634e-05
7.1929818e-05
9.8580541e-05
0.00013270628
0.00017452613
0.00022419217
0.00027756912
6.829472e-06
6.0635811e-06
1.2092525e-05
1.7719027e-05
2.5101375e-05
3.5197333e-05
4.9043994e-05
6.7521232e-05
9.1865091e-05
0.00012332124
0.00016340446
0.0002122057
0.00026973431
0.0003308377
1.1033073e-05
7.838045e-06
1.4674006e-05
1.970024e-05
2.6004163e-05
3.4880932e-05
4.7292501e-05
6.3971854e-05
8.5936794e-05
0.00011456868
0.00015142855
0.00019819598
0.00025490079
0.00032121531
0.00039090698
1.7232712e-05
1.0556725e-05
1.8510272e-05
2.279713e-05
2.7712338e-05
3.5223429e-05
4.6262506e-05
6.1319963e-05
8.1144906e-05
0.00010687778
0.00014027241
0.00018315943
0.00023749234
0.0003030786
0.00037922035
0.00045836839
2.5435261e-05
1.492019e-05
2.4231473e-05
2.7419271e-05
3.0480185e-05
3.6307547e-05
4.5923773e-05
5.957077e-05
7.7558538e-05
0.00010070735
0.00013053814
0.00016917034
0.00021885539
0.00028169577
0.00035728581
0.00044432154
0.00053385342
3.5402946e-05
2.1667961e-05
3.2914213e-05
3.4190969e-05
3.4658521e-05
3.8315357e-05
4.6285674e-05
5.8619276e-05
7.5157924e-05
9.6170878e-05
0.00012282872
0.00015705747
0.00020152942
0.00025883958
0.00033129338
0.00041806057
0.00051713895
0.00061796188
4.6631191e-05
3.1803715e-05
4.5663372e-05
4.4202909e-05
4.0775167e-05
4.1517158e-05
4.7446543e-05
5.8414644e-05
7.3778582e-05
9.3219972e-05
0.00011730388
0.00014760227
0.00018662843
0.00023758592
0.00030352431
0.00038676616
0.00048600087
0.00059826603
0.00071129031
5.8375293e-05
4.6758959e-05
6.3792064e-05
5.8618875e-05
4.9817267e-05
4.6338562e-05
4.9575038e-05
5.8974916e-05
7.3315822e-05
9.1653568e-05
0.000113905
0.00014101899
0.00017515299
0.00021939972
0.00027766273
0.0003533103
0.00044866665
0.00056168677
0.00068830492
0.00081438693
6.9995152e-05
6.7548536e-05
8.9222223e-05
7.8805439e-05
6.3037601e-05
5.3598024e-05
5.2995257e-05
6.0392719e-05
7.3711173e-05
9.1311983e-05
0.00011240497
0.00013726358
0.0001673993
0.00020555295
0.00025559851
0.00032206154
0.00040868068
0.00051753968
0.00064572512
0.0007878158
0.00092775706
8.1235677e-05
9.5046246e-05
0.00012395221
0.00010682109
8.1949119e-05
6.4506268e-05
5.8386811e-05
6.28996e-05
7.4986121e-05
9.2060264e-05
0.0001125791
0.00013607756
0.00016335466
0.00019646543
0.00023893851
0.00029541905
0.00037117605
0.0004701173
0.00059397914
0.00073869216
0.00089732598
0.0010518385
9.1846728e-05
0.00012964168
0.00017008877
0.00014510395
0.00010871469
8.0587966e-05
6.696326e-05
6.7019453e-05
7.7304687e-05
9.3848767e-05
0.00011420744
0.00013715586
0.00016272405
0.00019216966
0.00022828391
0.00027539772
0.00033914515
0.00042539113
0.00053817119
0.00067856383
0.00084115473
0.0010173016
0.0011869847
0.00010154369
0.00016903376
0.00022789862
0.00019591544
0.00014603455
0.00010405562
8.026117e-05
7.3987969e-05
8.1010096e-05
9.6766417e-05
0.00011715478
0.00014017845
0.00016510021
0.00019234122
0.00022374352
0.00026285795
0.0003150958
0.00038703591
0.00048517773
0.00061339493
0.00077189359
0.00095363443
0.0011481426
0.0013334432
0.0001100651
0.0002105671
0.00029385904
0.00025966948
0.00019654096
0.00013785448
0.00010051244
8.5363533e-05
8.7267558e-05
0.00010100313
0.00012141889
0.00014489165
0.00017003158
0.0001964458
0.00022496869
0.00025803208
0.00030024188
0.00035815487
0.00043944696
0.0005510174
0.00069639169
0.00087454003
0.001076601
0.0012901673
0.0014913626
0.00011707887
0.00025124757
0.00036343523
0.00033320206
0.00026132993
0.00018527784
0.0001309881
0.00010332149
9.7720303e-05
0.00010752353
0.00012706395
0.00015117641
0.00017710807
0.00020386288
0.00023129078
0.00026056091
0.00029501017
0.00034042147
0.00040478515
0.00049673975
0.0006234691
0.00078775608
0.00098704921
0.001210446
0.0014435957
0.001660808
0.00012210449
0.000287424
0.00043174685
0.00041163068
0.00033884353
0.00024879888
0.00017564748
0.00013135358
0.00011444717
0.00011804034
0.00013478108
0.00015898645
0.00018605131
0.00021398357
0.00024188206
0.00026965731
0.00029907578
0.000334551
0.00038343944
0.00045518354
0.00055937723
0.00070310859
0.00088809897
0.0011099146
0.0013554802
0.0016085238
0.0018417303
0.00012475172
0.00031646417
0.00049353941
0.0004896206
0.00042439958
0.00032823205
0.0002381688
0.00017400094
0.00014093103
0.00013454692
0.00014629036
0.0001686894
0.00019670176
0.00022632321
0.00025589886
0.0002842623
0.000311548
0.00034032288
0.00037653579
0.00042929569
0.00050965229
0.0006278494
0.00079057345
0.00099801531
0.0012435909
0.0015119325
0.0017849402
0.0020339434
0.00012491541
0.00033684455
0.0005442478
0.00056177221
0.00051210858
0.00041948553
0.00031983352
0.00023600663
0.00018209332
0.0001603572
0.00016359041
0.00018190553
0.00020909372
0.00024054218
0.0002725844
0.00030324482
0.00033115154
0.00035678361
0.00038405853
0.00042075615
0.00047808127
0.00056852455
0.00070274672
0.00088650812
0.0011180836
0.0013884596
0.0016799476
0.0019727531
0.0022371577
0.00012258353
0.00034823594
0.00058091998
0.00062295947
0.00059623531
0.00051661661
0.0004177088
0.00032028566
0.00024370217
0.00020067901
0.0001896413
0.00020065
0.00022453801
0.0002564001
0.00029134545
0.00032553119
0.00035642185
0.00038247149
0.00040507332
0.00042988218
0.00046704113
0.00052989491
0.00063226723
0.00078470853
0.00099158891
0.0012488272
0.0015447959
0.0018595424
0.0021717526
0.0024509967
0.00011604907
0.00035151722
0.00060299459
0.00066959194
0.00067086242
0.00061338098
0.00052604084
0.00042548503
0.00033005805
0.00026197684
0.00022978196
0.000227614
0.00024508044
0.00027470755
0.00031167631
0.00035019931
0.00038591843
0.00041558581
0.00043796508
0.00045587234
0.00047735478
0.00051519594
0.00058497396
0.00070141009
0.00087445466
0.0011064805
0.0013907205
0.0017127927
0.0020506255
0.002381618
0.002674983
0.00010673856
0.00034315414
0.00061179136
0.00070098342
0.00073138179
0.00070312487
0.00063804651
0.00054613587
0.00044155831
0.00034996467
0.00029100862
0.00026805745
0.00027323146
0.00029742992
0.00033379034
0.00037644622
0.00041832166
0.00045426307
0.00048064472
0.00049704299
0.00050850299
0.00052594524
0.00056513799
0.00064363886
0.00077662252
0.00097273077
0.0012318387
0.0015441551
0.0018925406
0.0022529945
0.0026019273
0.0029085428
9.5325833e-05
0.00032673594
0.00059930956
0.0007185671
0.00077665165
0.00078032198
0.00074622658
0.00067486568
0.00057362702
0.00046690447
0.00038052749
0.00032945181
0.00031393575
0.0003269626
0.00035936576
0.00040384929
0.00045247533
0.00049672517
0.00053079002
0.00055106023
0.0005588595
0.00056208897
0.00057517356
0.00061686303
0.00070639177
0.00085864842
0.0010803322
0.0013682671
0.0017094358
0.0020840168
0.0024663393
0.0028321667
0.0031510259
8.2391296e-05
0.00030083459
0.00057612399
0.00071070327
0.00080812584
0.00084317622
0.0008438517
0.00080336172
0.00071858734
0.00060920632
0.00050250813
0.00042013976
0.00037483572
0.00036775714
0.00039073282
0.0004335905
0.00048736733
0.00054137893
0.00058611174
0.00061518352
0.00062592586
0.00062222972
0.00061571492
0.00062460314
0.00067056554
0.00077385828
0.00094835029
0.0011980545
0.0015163137
0.0018867655
0.0022870774
0.0026902467
0.0030717388
0.003401725
6.8700466e-05
0.00026718283
0.0005367255
0.0006947561
0.00080927753
0.00089295808
0.00092830007
0.00092366147
0.00086724077
0.00076948563
0.00065452257
0.00054628092
0.00046549481
0.0004276305
0.00043180762
0.00046786162
0.00052342416
0.00058666842
0.00064447538
0.00068655004
0.00070660809
0.00070384512
0.00068579842
0.00066842362
0.00067397946
0.00072660724
0.00084685282
0.0010466509
0.0013266851
0.0016764367
0.0020762296
0.0025014657
0.0029242072
0.0033199735
0.0036598839
5.5155856e-05
0.0002283289
0.00048410078
0.00065889962
0.00080651286
0.00090714792
0.001000739
0.0010323799
0.0010104807
0.00093791136
0.00082984533
0.00070735054
0.00059400406
0.00051700683
0.0004903569
0.00051007057
0.00056249927
0.00063208964
0.00070379044
0.0007624072
0.00079747576
0.00080356738
0.0007830627
0.00074804371
0.00071938377
0.00072323231
0.00078559645
0.00092632126
0.0011545421
0.0014669551
0.0018489959
0.0022777892
0.0027268187
0.0031676258
0.0035761403
0.0039247073
4.2741018e-05
0.00018739248
0.00042246369
0.00060647935
0.00078068317
0.00092268566
0.0010306099
0.0011304476
0.0011442509
0.0011042596
0.0010183129
0.00089748892
0.00076259339
0.00064591877
0.0005770857
0.00056746312
0.00060757207
0.00067892172
0.00076253381
0.00084008262
0.00089507623
0.00091747704
0.00090402816
0.00086149192
0.00080745764
0.00076792504
0.00077258391
0.00084835973
0.00101337
0.001273017
0.0016195356
0.0020342277
0.0024912809
0.0029626665
0.0034198343
0.0038394616
0.0041953746
3.2435786e-05
0.00014796613
0.00035681418
0.00054226773
0.00073511711
0.00091197271
0.0010681614
0.0011781985
0.0012695265
0.0012637971
0.0012086468
0.0011060978
0.00096626715
0.00081922994
0.00070402466
0.00065096084
0.00066512016
0.00072965738
0.00082115421
0.00091698895
0.00099607341
0.001041412
0.0010443798
0.0010053926
0.00093691082
0.00086262139
0.00081368136
0.00082254567
0.00091597751
0.0011091877
0.0014030646
0.0017849922
0.0022322418
0.0027164189
0.0032084434
0.0036801013
0.0041091268
0.0044710508
2.5081187e-05
0.00011382134
0.00029300039
0.00047187089
0.00067483339
0.00087833785
0.0010756331
0.0012411798
0.0013356381
0.0014178574
0.0013955156
0.0013211504
0.0011944641
0.0010337742
0.00087928243
0.00077435805
0.00074617938
0.00078983127
0.00088149478
0.00099248717
0.0010969386
0.0011712438
0.0011993298
0.0011751986
0.0011047134
0.0010070376
0.00091238848
0.00085661988
0.00087397556
0.00098972032
0.0012150447
0.0015456067
0.0019637772
0.002443011
0.0029527986
0.0034634992
0.0039476449
0.0043843053
0.0047508978
2.1266676e-05
8.8449244e-05
0.00023743076
0.00040205882
0.00060561857
0.00082676284
0.0010563493
0.0012692152
0.0014261813
0.0015030345
0.001580727
0.0015368863
0.0014343019
0.0012796922
0.0011017347
0.00094902823
0.00086552727
0.00087024375
0.00094814708
0.0010675731
0.0011955699
0.0013026276
0.001363877
0.001365599
0.0013063417
0.0011988044
0.001069771
0.00095595617
0.00089714814
0.0009280499
0.001071048
0.0013322225
0.0017014889
0.002156198
0.0026663703
0.0031999061
0.0037271118
0.0042216452
0.004664158
0.0050340871
7.4567848e-05
2.1313948e-05
0.00019611127
0.00034044447
0.00053475823
0.00076292315
0.0010151792
0.0012659532
0.0014767813
0.001624152
0.0016868685
0.0017557204
0.0016796649
0.0015434817
0.0013630571
0.0011768211
0.0010374326
0.00098588622
0.0010309732
0.0011457233
0.0012918205
0.0014317787
0.0015328633
0.0015707893
0.0015361231
0.0014336987
0.0012844918
0.0011233047
0.00099299959
0.00093610493
0.00098626045
0.001161536
0.0014619841
0.0018714288
0.0023624155
0.0029020159
0.0034571278
0.0039984991
0.0045012596
0.0049478441
0.0053198089
0.00017369361
7.3539246e-05
2.5235845e-05
0.00029431338
0.00047087186
0.00069449691
0.00095758061
0.0012358433
0.001491454
0.0016995033
0.0018412815
0.0018844039
0.0019338224
0.0018183815
0.0016495198
0.0014509418
0.0012677265
0.0011540945
0.0011452075
0.00123554
0.0013879282
0.0015571032
0.001700889
0.0017847423
0.0017875858
0.0017059694
0.00155298
0.0013587808
0.0011663324
0.0010237352
0.00097479171
0.0010503625
0.0012628443
0.0016055088
0.0020560015
0.0025824244
0.0031495111
0.0037237601
0.0042768334
0.0047856343
0.0052345299
0.005607272
0.00026928296
0.00017270154
8.5402704e-05
3.2702561e-05
0.000422403
0.0006309828
0.00089144435
0.0011839395
0.0014739715
0.001734056
0.0019446046
0.002076769
0.0020873445
0.0021097464
0.0019536056
0.0017582374
0.0015518036
0.0013852763
0.0013107457
0.0013518617
0.0014907814
0.0016792513
0.0018646133
0.0020007581
0.0020538166
0.0020086811
0.001869711
0.0016598709
0.0014191083
0.0011981319
0.0010489858
0.0010149355
0.0011223275
0.0013766418
0.0017638674
0.0022556046
0.0028160564
0.0034082936
0.0039990246
0.0045612541
0.0050739154
0.0055234082
0.0058957166
0.00039583243
0.00026846672
0.00019317596
0.0001089114
4.3023053e-05
0.00058184986
0.00082730169
0.0011185192
0.0014287318
0.0017309005
0.0020022314
0.0022115154
0.0023220206
0.0022893452
0.0022825653
0.0020906818
0.001877626
0.0016775763
0.0015422978
0.0015158264
0.0016139899
0.0018032546
0.0020227692
0.0022133443
0.0023270805
0.0023340468
0.0022275524
0.0020216614
0.0017503391
0.0014635141
0.0012186974
0.0010701652
0.0010586505
0.0012042592
0.0015045469
0.0019379661
0.0024704496
0.0030629809
0.003677692
0.0042820833
0.0048508829
0.0053652558
0.005813698
0.0061844221
0.00055449037
0.00039499918
0.00029187524
0.00023264979
0.0001414614
5.5291188e-05
0.00077609312
0.0010515019
0.0013643031
0.001693539
0.0020161538
0.0022957912
0.0024920404
0.0025691526
0.0024893618
0.0024572342
0.0022370578
0.0020204762
0.0018416371
0.0017469929
0.0017787904
0.0019405945
0.0021782415
0.002419163
0.0025997267
0.0026735293
0.0026181298
0.0024371675
0.0021561925
0.0018208962
0.001490812
0.0012287901
0.0010892788
0.0011083622
0.0012983323
0.001648061
0.0021285225
0.0027005549
0.0033227193
0.0039569398
0.0045720531
0.0051448356
0.0056588274
0.0061046505
0.0064727072
0.00074648904
0.0005533428
0.00041986457
0.00033641979
0.00028653772
0.00017959722
6.8587619e-05
0.00099585637
0.0012941545
0.0016307465
0.0019886091
0.0023299446
0.0026070207
0.0027786814
0.0028179408
0.0026916629
0.0026412989
0.0024059213
0.0022002975
0.0020518291
0.0020094218
0.0021115865
0.0023399191
0.0026185152
0.0028660968
0.0030175138
0.0030320214
0.0028977275
0.0026302501
0.0022680422
0.0018688244
0.0015007086
0.0012299579
0.0011088582
0.0011667377
0.0014067061
0.0018085258
0.0023360359
0.0029457472
0.0035946515
0.0042451905
0.0048680225
0.0054422347
0.0059538309
0.0063955524
0.0067599329
0.00096195882
0.00074382551
0.00057837717
0.00046662514
0.00039651057
0.00034886878
0.00021951702
8.197788e-05
0.001233582
0.001557718
0.0019284105
0.0023144214
0.0026651364
0.0029287898
0.0030699927
0.0030710477
0.0029042231
0.0028474874
0.002610618
0.0024242363
0.0023175026
0.0023438737
0.002525978
0.002817599
0.0031235453
0.0033579605
0.0034583627
0.0033932166
0.003163908
0.0027996327
0.0023526541
0.0018923702
0.0014938818
0.0012245211
0.0011318937
0.0012365729
0.0015314414
0.0019870666
0.0025607751
0.0032056597
0.0038780324
0.0045415344
0.0051690649
0.0057422169
0.0062494995
0.006685731
0.0070455059
0.0011950679
0.00095642032
0.00076823089
0.00062520791
0.00052877993
0.00046480603
0.00041320448
0.00025764296
9.4571271e-05
0.0014923612
0.0018527286
0.0022579255
0.0026645689
0.0030150614
0.003259444
0.003368892
0.0033352896
0.003137278
0.0030905697
0.0028576287
0.0027004203
0.0026542768
0.0027652882
0.0030311977
0.0033753184
0.0036891769
0.0038864849
0.0039118558
0.0037466873
0.0034075791
0.002938664
0.0024064335
0.0018909075
0.0014720332
0.0012155069
0.0011617113
0.0013206945
0.0016744223
0.0021845613
0.0028027692
0.0034797464
0.0041720089
0.0048450165
0.0054742506
0.0060439407
0.0065451014
0.0069745607
0.0073288809
0.0014497653
0.0011869184
0.00097957323
0.00081456844
0.00068651016
0.00059779824
0.00053362466
0.0004736681
0.00029084883
0.00010564051
0.0017825657
0.0021799093
0.0026136022
0.0030327529
0.0033780693
0.0036016191
0.0036804419
0.0036209669
0.0034062884
0.0033757435
0.0031531557
0.0030448859
0.0030799552
0.0032866615
0.0036321587
0.0040106481
0.0043078459
0.004440739
0.0043661621
0.0040813745
0.0036198374
0.0030415355
0.0024269767
0.0018650191
0.0014378424
0.0012065662
0.0012018724
0.0014218592
0.0018373005
0.0024016079
0.0030618113
0.0037672993
0.0044756407
0.0051546514
0.0057826553
0.0063465933
0.0068399508
0.0072614684
0.0076095607
0.0017359565
0.00144005
0.0012097272
0.0010254618
0.00087435312
0.00075261236
0.00066500425
0.00059621564
0.00052524465
0.00031653139
0.00011463085
0.0021050403
0.0025341266
0.0029892844
0.0034172996
0.0037568803
0.0039597997
0.0040145256
0.0039431516
0.003716031
0.0037049141
0.0035118198
0.0034783053
0.0036120045
0.0039176404
0.0043296134
0.0047174258
0.0049685036
0.0050076397
0.0048082569
0.0043861417
0.0037924221
0.0031036651
0.0024132351
0.0018165585
0.0013949206
0.0012018356
0.0012560349
0.0015426463
0.0020214367
0.0026385117
0.0033374689
0.004067469
0.0047879184
0.0054694341
0.0060933704
0.0066494082
0.0071334192
0.0075459265
0.0078870882
0.0020551903
0.0017252617
0.0014641061
0.0012563918
0.0010842213
0.00093648332
0.00081396755
0.00072312971
0.00064701113
0.00056373417
0.00033294537
0.00012089752
0.0024554335
0.0029093366
0.0033829715
0.0038211273
0.0041555998
0.0043426854
0.0043854914
0.0043078417
0.0040636284
0.0040908051
0.0039571205
0.0040218906
0.0042643497
0.0046642351
0.0051190936
0.0054856808
0.0056571942
0.005572655
0.0052247916
0.0046501484
0.0039181837
0.0031219056
0.0023656959
0.001748629
0.0013477022
0.0012058027
0.0013278155
0.0016853689
0.0022278637
0.0028952806
0.0036290949
0.0043792817
0.0051077762
0.0057883547
0.0064055288
0.0069516807
0.0074249212
0.0078274342
0.0081743152
0.0024038067
0.0020451859
0.0017516538
0.0015132347
0.0013151975
0.0011428601
0.00099042593
0.00086298038
0.00076645891
0.00068132924
0.00058620753
0.00034147839
0.00012305124
0.0028273245
0.0033024022
0.0037976068
0.004248397
0.0045820809
0.0047636987
0.0048008232
0.0047061741
0.0044587732
0.0045597185
0.0045137896
0.0046934795
0.0050473109
0.0055250396
0.0059910781
0.0063017511
0.0063579493
0.006120035
0.005602414
0.004863406
0.0039914143
0.0030947594
0.0022863841
0.0016655153
0.0013012843
0.001223131
0.0014206611
0.0018520118
0.0024572589
0.0031716411
0.0039358499
0.0047016559
0.0054341121
0.0061104337
0.0067183278
0.007252742
0.0077138765
0.0081174876
0.0084775874
0.0027749123
0.0023972193
0.002076276
0.0018045045
0.0015733602
0.0013709636
0.0011895207
0.0010283569
0.00089406364
0.00079015527
0.00069591617
0.00059814249
0.00033860248
0.00012279069
0.0032158854
0.0037160885
0.0042378595
0.0047061923
0.0050483182
0.0052319643
0.0052474163
0.0051383442
0.0049297201
0.0051401533
0.0052033246
0.0055063457
0.0059631708
0.0064930972
0.0069328671
0.0071483122
0.0070531173
0.0066335742
0.005928154
0.005017221
0.00400811
0.0030225601
0.0021788734
0.0015725664
0.0012612649
0.0012585012
0.0015377326
0.0020441765
0.0027099265
0.003467038
0.0042567188
0.0050334295
0.0057658362
0.0064347539
0.0070309887
0.0075518928
0.0080110717
0.0084226981
0.0087887058
0.0031613478
0.0027734851
0.0024366513
0.0021353346
0.0018666493
0.0016266479
0.0014102369
0.0012159553
0.0010449222
0.00090243042
0.0007908549
0.00070265691
0.00058923058
0.00032782186
0.00012013518
0.003623427
0.0041558879
0.0047098967
0.0052047706
0.0055640956
0.0057326264
0.0057178774
0.0056313687
0.0055040129
0.0058551689
0.0060424521
0.0064671756
0.0070101835
0.0075568672
0.0079284561
0.0080058445
0.0077240401
0.0070973737
0.0061901142
0.0051046666
0.0039662795
0.0029075231
0.0020482323
0.0014760168
0.00123353
0.0013164511
0.0016818188
0.0022630236
0.0029857904
0.0037806478
0.0045905448
0.0053734228
0.0061019069
0.0067603997
0.0073426616
0.0078597981
0.0083233542
0.008737008
0.0091075664
0.0035644918
0.0031639752
0.0028238317
0.0025057185
0.0022013678
0.0019171379
0.0016578685
0.0014243546
0.0012171517
0.0010354822
0.000884904
0.00078811104
0.00068442611
0.00056731824
0.00030825363
0.00011519161
0.0040561452
0.0046268117
0.0052219546
0.0057533895
0.0061154124
0.0062482569
0.0062352936
0.0062147814
0.0062074738
0.0067264924
0.0070422867
0.007578709
0.0081815338
0.0086993147
0.0089580973
0.0088533179
0.008351594
0.0074962251
0.0063779965
0.0051208456
0.0038660791
0.0027537531
0.0019008559
0.0013827793
0.001224072
0.0014012202
0.00185524
0.0025092318
0.0032844176
0.0041114325
0.0049361051
0.0057204717
0.0064412497
0.0070863424
0.0076644991
0.008183477
0.0086460534
0.0090602799
0.0094340311
0.0039923628
0.0035693895
0.0032240475
0.0029053319
0.0025784455
0.0022495143
0.0019387779
0.0016581508
0.001408831
0.0011887596
0.00099670384
0.00086906554
0.00075569964
0.00065270594
0.00053115914
0.00028020345
0.00010834501
0.0045182996
0.0051347773
0.0057818824
0.0063402397
0.0066765966
0.006798096
0.0068299769
0.0069187001
0.0070625677
0.0077684068
0.008208583
0.008839156
0.0094622417
0.009900867
0.009998268
0.0096685043
0.0089170069
0.0078162459
0.0064835147
0.0050631649
0.0037099088
0.0025671612
0.0017442921
0.0013002253
0.0012387957
0.001516597
0.0020597566
0.0027830039
0.0036050655
0.0044582151
0.005292138
0.0060733268
0.0067826293
0.0074248763
0.0080035966
0.0085190032
0.0089790315
0.0093923124
0.00976794
0.0044478634
0.003999085
0.0036379498
0.0033165883
0.0029857477
0.0026251819
0.0022603315
0.0019226026
0.0016237891
0.0013597257
0.0011269999
0.00096623637
0.00081844872
0.00070988441
0.00060613212
0.00048138265
0.00024513022
0.00010004283
0.0050132602
0.0056852898
0.0063800032
0.0069356573
0.0072608951
0.0074119383
0.0075301595
0.0077616217
0.0080888433
0.008991057
0.0095436113
0.010238311
0.010833175
0.011139708
0.011023645
0.010429215
0.0094025113
0.0080454422
0.0065007834
0.004931531
0.003502416
0.0023553356
0.00158702
0.001235961
0.0012832622
0.0016657838
0.0022965466
0.0030841277
0.0039467466
0.0048196894
0.005657218
0.00643053
0.0071402042
0.0077830537
0.0083561241
0.0088662684
0.0093220324
0.0097328705
0.010109102
0.0049326931
0.0044560664
0.0040763814
0.0037406118
0.003402292
0.003029637
0.0026237041
0.002225014
0.0018661051
0.0015513604
0.0012727255
0.0010809062
0.00089444285
0.00075521396
0.00064935576
0.00054546599
0.00042091714
0.00020563706
9.0575435e-05
0.0055436894
0.0062706375
0.0069873472
0.0075456457
0.0078977326
0.0081167691
0.0083592992
0.0087653175
0.0092985717
0.010399833
0.011041999
0.011763959
0.012269929
0.012390563
0.01200763
0.011113968
0.0097921258
0.0081741587
0.0064265292
0.0047284985
0.0032504339
0.0021273578
0.0014381997
0.0011975278
0.001362466
0.0018513322
0.0025662753
0.0034120408
0.0043082121
0.0051942768
0.0060296604
0.0068089395
0.0075208434
0.0081564481
0.0087220288
0.0092249658
0.0096747613
0.010081663
0.010457303
0.0054465444
0.0049403024
0.0045424034
0.004189382
0.0038302751
0.0034395657
0.0030118339
0.0025656334
0.002142718
0.001766701
0.0014352188
0.0012103668
0.0009861086
0.00081121039
0.00067823594
0.00057538762
0.00047436287
0.00035414815
0.00016532432
8.0180122e-05
0.0061026114
0.0068652214
0.0076039709
0.0081990998
0.0086126924
0.0089363649
0.0093367562
0.0099472246
0.010702998
0.011994442
0.012699455
0.013395302
0.013747027
0.013622893
0.012924953
0.011702463
0.010072125
0.0081953826
0.0062603552
0.0044592692
0.0029628851
0.0018935422
0.001307333
0.0011920578
0.0014807668
0.0020752057
0.0028691038
0.0037657246
0.0046877887
0.0055800924
0.0064299631
0.0072150797
0.0079187662
0.0085450976
0.0091009715
0.0095947634
0.010036853
0.010438364
0.0108123
0.005982592
0.0054494016
0.0050355328
0.0046662755
0.0042819576
0.003858478
0.0034005419
0.002925003
0.0024524539
0.0020122328
0.0016184215
0.0013548776
0.0010902953
0.00088130086
0.00071552916
0.00058943377
0.00049256274
0.00039788761
0.00028616882
0.00012702187
6.9129601e-05
0.0066704559
0.0074667663
0.0082567643
0.0089198064
0.0094283926
0.0098907162
0.010482956
0.011316849
0.012304404
0.013771498
0.014501477
0.015104511
0.015237202
0.014805384
0.013750867
0.012176264
0.010231323
0.0081050042
0.0060048733
0.0041316448
0.0026505629
0.0016650739
0.0012038714
0.0012261293
0.0016419266
0.0023387255
0.0032044889
0.0041435236
0.0050834614
0.0060023428
0.0068641468
0.0076409376
0.0083341372
0.008948649
0.0094925989
0.0099752381
0.010407887
0.010802595
0.011173827
0.0065275935
0.0059774158
0.0055523631
0.0051708111
0.0047617034
0.0042986608
0.0037949531
0.0032799326
0.0027740843
0.002285055
0.0018263397
0.0015177687
0.001207776
0.00096254859
0.00076555121
0.00060996332
0.00049440018
0.00040676662
0.00032132753
0.00022176626
9.3222438e-05
5.7677229e-05
0.0072450984
0.0080988527
0.0089683551
0.0097289508
0.010364216
0.010999743
0.011809383
0.01288677
0.014107362
0.015720639
0.016425401
0.016859409
0.01670827
0.015907516
0.014462594
0.012519655
0.010261448
0.0079022226
0.0056657791
0.0037559523
0.0023257785
0.0014536106
0.0011369917
0.0013058289
0.0018489383
0.0026421851
0.0035710015
0.004543427
0.0055263035
0.0064664064
0.007320984
0.0080868494
0.0087666004
0.0093667421
0.0098964502
0.010365897
0.010787383
0.011173946
0.011541589
0.0070814154
0.0065160734
0.0060882107
0.005699418
0.0052688683
0.0047652757
0.0042071499
0.0036371576
0.0030871205
0.0025634217
0.002053688
0.001702766
0.0013398519
0.0010555153
0.00082588668
0.00064210437
0.00050115841
0.00039963002
0.00032358166
0.00024973859
0.00016534266
6.6185375e-05
4.6074345e-05
0.0078469923
0.0087832491
0.0097582301
0.010645224
0.011439096
0.012277619
0.013331935
0.0146617
0.016107988
0.017834142
0.018446639
0.018625038
0.01812446
0.016902322
0.01503961
0.012719883
0.010157526
0.0075896204
0.0052518103
0.0033447166
0.002001958
0.001271091
0.0011155914
0.0014364281
0.0021034142
0.0029846437
0.0039668554
0.0050035769
0.0060209992
0.0069567334
0.0078010281
0.0085524663
0.0092158129
0.0097988929
0.010311978
0.010766174
0.011174804
0.011551975
0.011915328
0.0076619957
0.0070679227
0.0066382998
0.0062487654
0.0058001172
0.0052576564
0.0046426379
0.0040083598
0.0033997077
0.0028307609
0.0022816762
0.0019028079
0.0014898179
0.0011607073
0.0008968221
0.0006840988
0.00051864684
0.00039637748
0.00031111849
0.0002484863
0.00018790634
0.00012023633
4.5750891e-05
3.4972546e-05
0.0084954695
0.0095376952
0.010644547
0.01168538
0.012668274
0.013741104
0.01505872
0.016648389
0.018303685
0.020102267
0.020523374
0.020370452
0.019451144
0.017764103
0.015463976
0.012767384
0.009918217
0.0071731613
0.0047745132
0.0029123322
0.0016935383
0.0011296292
0.0011478388
0.0016214443
0.0024053802
0.0033649029
0.0044384016
0.0055280782
0.006546495
0.0074741471
0.0083039466
0.0090374888
0.0096812867
0.010244522
0.01073855
0.011175431
0.011569594
0.011936278
0.012294709
0.0082853996
0.0076474725
0.0072063861
0.0068163337
0.0063532471
0.0057733413
0.0051014579
0.0043995656
0.0037230893
0.0030958712
0.0024975882
0.0021009809
0.0016507734
0.0012804555
0.00097831191
0.00073611405
0.00054589602
0.00040323964
0.00030203932
0.00023449467
0.00018592706
0.00013881787
8.6292764e-05
3.1068614e-05
2.5124531e-05
0.0092073282
0.010379199
0.011642399
0.012863866
0.014067114
0.015401426
0.016997564
0.018846961
0.020693313
0.022494972
0.022614173
0.022062484
0.020653909
0.018469282
0.015721059
0.012656303
0.009545751
0.0066621077
0.0042480277
0.0024750487
0.0014159547
0.001040821
0.0012398262
0.0018624411
0.0027547504
0.0038384464
0.0049895831
0.0060891873
0.0071039326
0.0080183365
0.0088295108
0.0095414461
0.010162429
0.010702949
0.011175444
0.011593017
0.011971221
0.01232636
0.012679384
0.0089683884
0.0082698741
0.0078056839
0.0074082844
0.0069289526
0.0063114436
0.0055825656
0.0048118999
0.0040641306
0.0033700834
0.0027087884
0.0022866154
0.0018070465
0.0014082194
0.0010719113
0.00079785041
0.00058322108
0.00042008052
0.00030278406
0.00022360049
0.00017366516
0.00013751158
0.00010192658
6.1552622e-05
2.1113117e-05
1.701535e-05
0.0099999881
0.01132395
0.012765158
0.014195145
0.01564912
0.017269816
0.019156122
0.021261681
0.023266796
0.024972756
0.024681956
0.023657386
0.021702195
0.018998026
0.015800101
0.012384436
0.0090458067
0.0060688437
0.0036892618
0.0020511515
0.0011846288
0.0010139983
0.0013953597
0.0021611637
0.0032163005
0.0044099448
0.0055849333
0.0066884041
0.0076930203
0.0085891708
0.0093772882
0.010063755
0.010658532
0.011173389
0.011621932
0.012018284
0.012379058
0.012721681
0.013068989
0.0097281242
0.0089516144
0.0084509567
0.0080363511
0.0075345238
0.0068754308
0.006086764
0.0052463085
0.0044254332
0.0036617795
0.0029297106
0.0024691177
0.0019531139
0.0015307595
0.0011714405
0.00086991991
0.00063002362
0.00044747516
0.00031381674
0.00022234995
0.00016401914
0.00012854209
0.00010203465
7.5043924e-05
4.3973369e-05
1.4495729e-05
1.0884465e-05
0.010889156
0.012385036
0.014026872
0.015693414
0.017428214
0.019356605
0.021543359
0.02389343
0.026004988
0.027483373
0.026690647
0.025115851
0.022570814
0.019334487
0.015694171
0.011952952
0.0084274596
0.0054093202
0.0031183143
0.0016599066
0.0010126536
0.0010560008
0.0016189323
0.0025909115
0.0037972329
0.0050355769
0.0062263236
0.0073254403
0.0083137457
0.0091862772
0.0099467266
0.0106037
0.011168768
0.011655058
0.012077261
0.012450499
0.012792402
0.013121675
0.013463147
0.010582536
0.0097107787
0.0091590295
0.0087163599
0.0081825925