/*--------------------------------*- C++ -*----------------------------------*\
  =========                 |
  \\      /  F ield         | OpenFOAM: The Open Source CFD Toolbox
   \\    /   O peration     | Website:  https://openfoam.org
    \\  /    A nd           | Version:  8
     \\/     M anipulation  |
\*---------------------------------------------------------------------------*/
FoamFile
{
    version     2.0;
    format      ascii;
    class       volVectorField;
    location    "300.966377299864348";
    object      U;
}
// * * * * * * * * * * * * * * * * * * * * * * * * * * * * * * * * * * * * * //

dimensions      [0 1 -1 0 0 0 0];

internalField   nonuniform List<vector> 
9200
(
(1.0371605 0.00066315681 -4.7259114e-24)
(1.0373483 0.0021082356 1.2696682e-21)
(1.0350887 0.00063734473 0)
(1.0376694 0.003403003 -6.793369e-22)
(1.0352223 0.0020561174 1.0019565e-21)
(1.0342526 0.00061718112 0)
(1.0381216 0.0047144464 -6.5783854e-23)
(1.035475 0.003309677 -3.7040269e-24)
(1.0343747 0.0020008001 0)
(1.0330504 0.00059068944 0)
(1.0386898 0.0060130383 1.4525415e-21)
(1.035792 0.0045800439 1.0298118e-21)
(1.0346023 0.0032116065 5.7404956e-22)
(1.0331537 0.0019244755 3.4117428e-23)
(1.0321056 0.00057100212 4.8713695e-25)
(1.03938 0.0073687181 1.3451569e-21)
(1.0361479 0.0058316749 -3.0480011e-24)
(1.0348753 0.0044251406 1.9321223e-21)
(1.0333598 0.0030799931 8.0398547e-22)
(1.0322007 0.0018637645 3.8630817e-23)
(1.031162 0.00055245213 -1.3885899e-21)
(1.0401942 0.0088252591 1.8358186e-21)
(1.0365046 0.0071330041 1.2879585e-21)
(1.0351539 0.0055905528 -1.1384976e-21)
(1.0336055 0.0042250093 -9.0148462e-23)
(1.0323952 0.0029789752 6.7621224e-22)
(1.0312482 0.0018051531 6.9365934e-22)
(1.0302977 0.00053432983 1.2719306e-22)
(1.0411087 0.010448171 1.8632498e-21)
(1.0368248 0.0085321947 1.1862221e-21)
(1.0353864 0.0067420697 1.4091452e-21)
(1.0338626 0.0052984891 1.3204006e-22)
(1.0326313 0.0040749984 -1.7800415e-21)
(1.0314347 0.0028889027 -7.9349051e-22)
(1.0303734 0.0017455678 -7.4899571e-22)
(1.0294885 0.00051323208 1.2459681e-21)
(1.0420677 0.012315869 -2.8620786e-21)
(1.037029 0.010082035 7.5292632e-22)
(1.0355281 0.0078895726 1.8775561e-22)
(1.0340847 0.0063071863 6.1006047e-22)
(1.0328955 0.0050874857 2.6317475e-22)
(1.0316684 0.0039555956 -2.5874469e-21)
(1.0305456 0.0028011799 1.098357e-22)
(1.0295515 0.0016746784 -1.2609688e-21)
(1.0287447 0.0004868788 -2.6078528e-21)
(1.0430108 0.014504972 3.1810211e-21)
(1.0369896 0.011821097 5.62252e-22)
(1.0355317 0.0090444884 -1.1279481e-22)
(1.0342393 0.0072309168 -5.2536629e-22)
(1.0331607 0.0060099677 -2.7630439e-22)
(1.0319495 0.0049455489 4.1073632e-22)
(1.0307656 0.0038465405 9.0044962e-22)
(1.0297043 0.0026958553 1.4710007e-21)
(1.0287939 0.0015848491 8.4358547e-22)
(1.0280712 0.00045439571 2.1654522e-22)
(1.0439559 0.017131342 -1.2712463e-21)
(1.0365757 0.013781889 1.2671962e-21)
(1.0352952 0.010206472 4.3296083e-22)
(1.034279 0.0080336584 -9.8082389e-22)
(1.033416 0.0068031201 5.3294408e-22)
(1.0322727 0.0058501009 -2.2173852e-21)
(1.0310512 0.0048354609 1.2889456e-22)
(1.0298969 0.003712683 2.1433852e-21)
(1.0289233 0.002557231 -1.0557612e-21)
(1.0281073 0.0014733315 2.3552954e-21)
(1.0274731 0.00041641669 -3.3356192e-22)
(1.0449334 0.020336422 -5.9574458e-22)
(1.035646 0.016039809 -2.5382492e-21)
(1.0346696 0.011321456 -1.0572755e-21)
(1.0341448 0.008679183 0)
(1.0336389 0.0074086412 5.2320825e-23)
(1.0326494 0.0066285932 -5.0893882e-22)
(1.0314119 0.0057615119 -4.3960381e-22)
(1.0301616 0.0046999305 -1.0572208e-21)
(1.0290776 0.0035279649 -4.2254472e-22)
(1.028213 0.0023792131 -1.3308976e-21)
(1.0274999 0.0013427946 -8.8742905e-22)
(1.0269522 0.00037456692 2.0807413e-22)
(1.0459229 0.024287943 -1.1134294e-22)
(1.0340335 0.018701338 1.1617514e-21)
(1.0334419 0.0123807 0)
(1.0337689 0.0090636631 0)
(1.0338346 0.0077669397 -1.4984411e-22)
(1.0330822 0.007229436 -3.6207667e-22)
(1.0318771 0.0066000125 -5.1446799e-22)
(1.0305101 0.0056607758 1.2922849e-21)
(1.0292922 0.0044926539 1.427805e-22)
(1.0283258 0.0032810382 5.0604551e-24)
(1.0275861 0.0021665897 1.4040596e-21)
(1.0269739 0.0011996807 -1.4470465e-21)
(1.026507 0.00033289372 3.1144733e-21)
(1.0467028 0.029209323 2.8455801e-21)
(1.0315123 0.021875043 -1.8181942e-22)
(1.0314602 0.013356814 8.6008136e-22)
(1.0329318 0.0090771042 -4.7848547e-22)
(1.03409 0.0077975452 4.6936069e-23)
(1.0336576 0.007596554 -1.7722898e-22)
(1.0324906 0.0073232145 3.5997992e-22)
(1.0309838 0.0065993153 2.7282277e-23)
(1.0295722 0.0054720075 1.5378305e-21)
(1.0284661 0.0041846165 1.4428821e-21)
(1.0276638 0.0029765951 4.0141145e-22)
(1.0270489 0.0019317419 1.1653943e-21)
(1.0265279 0.0010544533 7.8036796e-22)
(1.0261313 0.0002944696 -8.3890288e-22)
(1.0471882 0.035003963 -8.3275152e-21)
(1.0278846 0.025809371 -6.8998699e-21)
(1.0285171 0.014219511 -5.7512076e-22)
(1.031562 0.0085616473 1.4375487e-22)
(1.0342437 0.0072842599 -7.4386433e-23)
(1.0344756 0.0076744139 2.4050348e-22)
(1.0333355 0.0078773581 3.4703581e-22)
(1.0316338 0.0075287532 -4.828162e-22)
(1.0299448 0.0064993953 -1.8665254e-22)
(1.0286369 0.0051292214 -1.8427078e-22)
(1.0277372 0.0037829515 -2.3998176e-23)
(1.0271061 0.0026336106 -2.6573118e-22)
(1.0266018 0.0016909923 -1.3979595e-21)
(1.0261567 0.00091733883 6.8869402e-22)
(1.025816 0.00026137162 -6.223328e-22)
(1.0474935 0.04181279 -3.539696e-21)
(1.0232415 0.030399825 4.1275841e-21)
(1.0242945 0.014941228 -2.0106285e-21)
(1.0295388 0.0073825083 1.084132e-21)
(1.0342968 0.0060278172 -3.6305948e-22)
(1.0356844 0.0073456846 -7.0536219e-22)
(1.0343958 0.0083064197 2.626139e-22)
(1.0324391 0.008480744 4.9011764e-23)
(1.030415 0.0076334719 -2.9891524e-22)
(1.0288319 0.0061664669 -5.8645571e-22)
(1.0277877 0.0046199862 -2.6250467e-21)
(1.0271363 0.0033186318 3.4667059e-22)
(1.026655 0.0022785221 4.2312191e-22)
(1.0262394 0.0014632773 2.4793464e-22)
(1.0258504 0.00079557959 7.7938443e-23)
(1.0255506 0.00023480092 6.8281155e-22)
(1.0473475 0.049723767 0)
(1.0174542 0.035799902 7.6394147e-21)
(1.0188862 0.015496909 6.0178392e-22)
(1.0266514 0.005345606 0)
(1.0342453 0.0038294074 0)
(1.0372831 0.0063563362 0)
(1.0360815 0.0086577763 7.7824795e-23)
(1.0334838 0.0095200927 8.2707439e-22)
(1.0309246 0.0089511182 7.4994877e-22)
(1.0290086 0.0073610748 8.9498197e-22)
(1.0277994 0.0055499976 2.2692309e-22)
(1.0271038 0.0040012053 5.6799027e-22)
(1.0266716 0.0028345861 4.2722233e-23)
(1.0263041 0.001941526 -4.8541172e-22)
(1.0259498 0.0012623069 -1.7331359e-22)
(1.0255973 0.00069342968 -3.277562e-22)
(1.0253249 0.00021506335 0)
(1.0474998 0.058579418 -7.3860469e-21)
(1.0102621 0.042277086 -1.1815789e-20)
(1.0122788 0.015800941 1.0857814e-20)
(1.0227356 0.0022864417 3.1578365e-21)
(1.0340707 0.00045901293 1.1574277e-21)
(1.0393518 0.0045491454 0)
(1.0385512 0.0087670105 -1.4823427e-22)
(1.03509 0.010697773 -2.4380279e-22)
(1.0315811 0.010520885 6.3331811e-22)
(1.0291093 0.0087930727 1.1613355e-21)
(1.0276999 0.0066214738 -5.1665085e-22)
(1.0269777 0.0047306923 2.9755526e-22)
(1.0266085 0.0033491312 7.2453697e-22)
(1.0263338 0.0023733647 -1.6073404e-21)
(1.0260393 0.0016474274 -5.3621055e-22)
(1.0257179 0.0010961577 -2.1440929e-21)
(1.0253858 0.00061225661 -8.778439e-22)
(1.0251294 0.00020177015 -8.3425246e-22)
(1.0494232 0.068504534 9.1104276e-23)
(1.0019699 0.049790053 -7.6768275e-21)
(1.0040339 0.015952392 -1.4770863e-21)
(1.0180738 -0.0019484806 3.9348952e-21)
(1.03369 -0.0043867748 -1.5369133e-22)
(1.0420629 0.0017020421 8.7464498e-23)
(1.0419361 0.0085383338 -5.1613057e-23)
(1.0374354 0.012131668 1.3736514e-23)
(1.0325375 0.012492745 -3.1594881e-22)
(1.0291344 0.010561104 -1.2273361e-21)
(1.0273966 0.0079010795 -3.1152513e-22)
(1.0266766 0.0055365988 -9.7591918e-22)
(1.0264275 0.0038485115 -1.3017244e-22)
(1.0262872 0.0027298825 2.0048546e-22)
(1.026104 0.0019729976 2.7579061e-22)
(1.0258404 0.0014086768 3.123924e-22)
(1.0255288 0.00096751804 -6.9207942e-22)
(1.0252052 0.00055110541 2.3193246e-23)
(1.0249563 0.00019403044 -7.810901e-22)
(1.0507984 0.079924499 -2.1554521e-21)
(0.99340123 0.058744987 9.5488921e-21)
(0.99371965 0.015812225 -2.9252916e-20)
(1.0125856 -0.0074340271 -2.0069298e-21)
(1.0332376 -0.010973419 9.8555466e-22)
(1.0456082 -0.0024201817 2.4100504e-22)
(1.0465031 0.0078504378 -2.4467421e-22)
(1.040726 0.013896654 -1.1530825e-21)
(1.033902 0.015081706 -1.1387926e-22)
(1.0290844 0.012847483 -2.969081e-22)
(1.0268036 0.0094741438 -1.586465e-21)
(1.0260846 0.0064531939 5.3503311e-22)
(1.0260527 0.0043312807 5.9104868e-22)
(1.0261341 0.003015626 -5.448749e-23)
(1.0261104 0.0021950456 2.2252242e-22)
(1.0259553 0.0016547877 9.2625332e-22)
(1.0256875 0.0012273004 -1.3072895e-22)
(1.0253703 0.00087439054 1.1366112e-21)
(1.0250466 0.00050747904 3.0610216e-22)
(1.0247995 0.00019068239 8.1271109e-22)
(1.0459476 0.091491041 1.6187549e-21)
(0.98516909 0.06998048 1.5846351e-20)
(0.98143702 0.01569715 2.7536388e-21)
(1.0054864 -0.014414362 4.9541332e-21)
(1.0328909 -0.019313255 1.1998368e-21)
(1.0500899 -0.0082735837 9.9792284e-22)
(1.0526354 0.0065956704 -3.5822859e-21)
(1.0452371 0.016094104 -2.1453211e-21)
(1.0357951 0.018519842 2.1521678e-21)
(1.0289593 0.015879363 0)
(1.0258246 0.01146749 1.1596008e-21)
(1.0250853 0.0075230423 1.1403215e-21)
(1.0253634 0.0047902909 -3.2595512e-22)
(1.0258156 0.0031899886 -4.0901558e-22)
(1.026046 0.0023070149 -4.8210968e-22)
(1.0260391 0.0017794352 7.0903175e-22)
(1.0258587 0.0014220819 2.4930717e-22)
(1.025564 0.0010976668 -2.9530359e-22)
(1.0252327 0.00081137979 6.4988449e-22)
(1.0249034 0.00047792052 5.2364434e-23)
(1.0246543 0.00019050165 7.7848153e-22)
(1.0329681 0.10206823 9.8450549e-21)
(0.97577469 0.082624373 1.2252812e-20)
(0.96770427 0.015856835 1.9497489e-20)
(0.99664303 -0.023080726 -1.1718538e-20)
(1.0321381 -0.029562297 -1.0430781e-21)
(1.0552722 -0.0157864 6.0257349e-22)
(1.0606597 0.0045317787 0)
(1.051354 0.01878536 -1.7569954e-21)
(1.0383315 0.023088549 -1.205715e-21)
(1.0287125 0.01992488 8.7656471e-22)
(1.0243406 0.014049816 1.1612152e-21)
(1.0235327 0.0087941447 5.5845318e-22)
(1.0242428 0.0052125714 -2.1522412e-22)
(1.0252215 0.0032182002 3.6338661e-22)
(1.0258795 0.0022439106 -2.7659136e-23)
(1.0260951 0.0017675796 1.1248512e-22)
(1.0260298 0.0014898384 -8.9272196e-23)
(1.0257898 0.0012654442 5.3927832e-22)
(1.0254577 0.0010106849 1.595063e-22)
(1.0251089 0.00077129284 2.1116743e-23)
(1.0247711 0.00045859945 4.0043561e-22)
(1.0245178 0.00019237438 0)
(1.0144808 0.11167351 6.0812026e-21)
(0.96291856 0.095184896 -5.4969738e-21)
(0.95387918 0.016590626 -4.6308109e-23)
(0.98614539 -0.033431902 -1.1840977e-20)
(1.0307361 -0.042000772 1.3332807e-21)
(1.0611849 -0.025059448 -2.741723e-21)
(1.0699595 0.0015947598 6.592109e-23)
(1.0594074 0.022263818 -4.6555137e-21)
(1.0416759 0.029061248 -1.0855773e-21)
(1.0282659 0.025278897 2.4687509e-22)
(1.0221909 0.017414473 -1.0149914e-22)
(1.0212403 0.010326766 -1.8114167e-21)
(1.0225466 0.005580466 -8.4869323e-23)
(1.0242571 0.0030282651 2.075518e-21)
(1.0255274 0.0019470039 8.5743237e-22)
(1.0261273 0.0015611515 5.0529655e-22)
(1.0262178 0.0014153099 -1.9017272e-22)
(1.0260437 0.0013113988 -7.7737339e-22)
(1.0257304 0.0011677226 -1.2709437e-23)
(1.0253613 0.00095640364 3.2350155e-22)
(1.0249942 0.00074681498 0)
(1.0246469 0.00044605467 -9.0311168e-22)
(1.0243883 0.00019540821 -4.793406e-25)
(0.99246379 0.1201138 -1.5264569e-20)
(0.94743724 0.10637312 -7.5752499e-21)
(0.94043118 0.018306431 2.198681e-20)
(0.9741342 -0.045166102 6.7227986e-21)
(1.0283724 -0.056532744 -3.5551264e-21)
(1.0676307 -0.036347718 0)
(1.0805903 -0.002296424 -3.8717876e-23)
(1.0688211 0.026586397 -3.2492066e-21)
(1.0458788 0.037060059 -1.1454431e-21)
(1.0275375 0.032251357 4.083581e-21)
(1.0191907 0.021769258 5.8955378e-22)
(1.017994 0.012195068 -8.436833e-22)
(1.0200863 0.005856411 7.4606724e-22)
(1.0228126 0.0025511731 2.7656281e-22)
(1.024926 0.0013048329 -2.2609411e-22)
(1.0260925 0.0010825211 -1.1967635e-21)
(1.0264483 0.0011536097 -5.5552141e-22)
(1.0263501 0.0012316468 -2.4686783e-22)
(1.0260522 0.0012179671 6.4213796e-22)
(1.0256696 0.0011103333 -1.5166173e-22)
(1.025271 0.00092431953 -6.6538494e-22)
(1.0248863 0.00073181335 7.8881006e-22)
(1.0245296 0.00043768377 -6.4698698e-22)
(1.0242645 0.00019895765 8.8332211e-25)
(0.96740282 0.12752935 -8.7711321e-21)
(0.92845081 0.11654673 -4.4958226e-21)
(0.92546756 0.019747409 -2.819976e-21)
(0.96083792 -0.057859179 -2.5817631e-20)
(1.024591 -0.072969934 4.1091866e-21)
(1.0738145 -0.049412633 1.8666701e-20)
(1.0923239 -0.007059455 -9.3162843e-23)
(1.0793449 0.031793652 1.0973869e-20)
(1.0504766 0.047119572 -2.5767891e-21)
(1.0263923 0.041448736 1.9429531e-22)
(1.0150441 0.027316544 1.7160649e-21)
(1.013545 0.014471961 3.043438e-21)
(1.0166472 0.0059966561 1.780004e-22)
(1.0207398 0.0016781887 -1.7400007e-22)
(1.0240211 0.00021004215 -9.7235234e-22)
(1.0259633 0.00020753742 5.7991027e-23)
(1.0267292 0.00063752676 -1.0741361e-22)
(1.0267512 0.0009928213 -3.2007598e-22)
(1.0264497 0.0011735432 0)
(1.026038 0.0011786058 -9.2338312e-23)
(1.0256047 0.0010773239 -2.5778812e-23)
(1.0251855 0.00090410261 5.3908688e-23)
(1.0247844 0.00072163342 -4.5621543e-23)
(1.0244184 0.00043166223 9.1684187e-22)
(1.0241457 0.00020262213 5.4973829e-22)
(0.94089755 0.13387977 1.2714541e-20)
(0.90720534 0.12554876 9.5526645e-22)
(0.90789197 0.020837743 4.6967118e-21)
(0.94649927 -0.070917739 2.1749094e-21)
(1.0189491 -0.091089288 -1.0227128e-21)
(1.0791897 -0.06422516 -7.3590446e-21)
(1.1040633 -0.012552475 -1.6605662e-22)
(1.0903592 0.038386959 -1.0487336e-21)
(1.0549203 0.059599909 -5.7358338e-21)
(1.0245727 0.05281845 2.8829426e-21)
(1.0094345 0.03446061 6.7475217e-22)
(1.0075581 0.017206533 -5.5927124e-22)
(1.011993 0.0059474342 -1.58227e-21)
(1.0178701 0.00028088689 -2.3556281e-22)
(1.0227287 -0.0014890228 -5.8459238e-22)
(1.0257465 -0.0011914622 1.1984366e-21)
(1.0270781 -0.00024911108 2.2692904e-21)
(1.02729 0.00055763384 3.761129e-22)
(1.0269704 0.0010161721 5.3633015e-22)
(1.0264918 0.0011903054 2.7659609e-23)
(1.0260027 0.0011654591 -6.7457503e-22)
(1.0255387 0.0010566533 -1.5496718e-22)
(1.0251043 0.00088713208 5.7752824e-22)
(1.0246887 0.00071281827 -7.6130847e-22)
(1.024313 0.000426894 7.0418571e-22)
(1.0240316 0.00020626626 -3.8512093e-23)
(0.91408279 0.13928622 -6.5430048e-22)
(0.88511166 0.13330766 -6.5345792e-21)
(0.88876167 0.021355097 -9.6260145e-21)
(0.93122987 -0.084061967 8.5154107e-21)
(1.0101871 -0.10998422 -2.3539632e-21)
(1.082164 -0.080586603 -3.755661e-20)
(1.1154263 -0.019191692 -2.6347037e-20)
(1.1017511 0.046429639 -1.6495937e-20)
(1.058529 0.074975958 1.2823603e-20)
(1.0213166 0.066719899 2.8141313e-22)
(1.0022771 0.043190813 -1.018126e-21)
(0.99959796 0.020492259 -3.2341878e-21)
(1.0058515 0.0056291244 2.4378018e-21)
(1.0140218 -0.001785773 -1.4158247e-21)
(1.0209507 -0.0039724436 -7.8054721e-23)
(1.0254331 -0.0032824496 3.5909523e-22)
(1.0275535 -0.0016313354 -2.750525e-22)
(1.028032 -0.00015975153 2.2531238e-22)
(1.0276775 0.00074209036 3.5254977e-23)
(1.0270734 0.0011422495 1.22958e-22)
(1.0264753 0.0012300411 0)
(1.0259476 0.0011554294 -2.0738179e-22)
(1.0254741 0.0010363871 -3.6387056e-23)
(1.025029 0.00086768531 0)
(1.0246002 0.00070363891 9.320996e-22)
(1.0242135 0.00042324343 -8.5877223e-24)
(1.0239217 0.00021002607 -5.6229177e-22)
(0.88786368 0.14383028 -4.4236411e-21)
(0.86304532 0.13994169 -1.2639292e-22)
(0.86877284 0.021236366 6.9034616e-22)
(0.91484888 -0.097226965 1.3509058e-21)
(0.99869434 -0.12885554 7.4088946e-21)
(1.0791894 -0.097832615 4.9001241e-20)
(1.1239555 -0.02739018 2.7290031e-21)
(1.1156977 0.05526847 2.0698515e-20)
(1.0630686 0.092994785 -7.6607928e-22)
(1.015993 0.083405895 -3.9764735e-21)
(0.99288434 0.05367424 -6.155853e-21)
(0.9896286 0.024360824 -3.2931478e-21)
(0.99787321 0.0049145202 -2.4202796e-21)
(1.0090038 -0.00468625 3.050919e-23)
(1.0185825 -0.0074444097 -1.2859295e-21)
(1.0250104 -0.0062686351 -2.4150781e-23)
(1.0282216 -0.0036650842 -1.4115273e-21)
(1.029078 -0.0012540289 -5.7469057e-22)
(1.0286688 0.00031424593 -3.4428308e-22)
(1.0278472 0.0010668951 -9.2361551e-22)
(1.0270594 0.0012917437 -1.4999118e-22)
(1.0264119 0.0012589012 1.2536231e-22)
(1.025884 0.00113346 1.952682e-23)
(1.0254147 0.0010052431 0)
(1.0249635 0.00084423383 0)
(1.0245197 0.00069449646 -6.549388e-23)
(1.0241194 0.00042138796 9.5229441e-22)
(1.0238155 0.00021418359 1.1019194e-21)
(0.86282475 0.14758707 0)
(0.84161932 0.14555882 -8.593671e-21)
(0.84883586 0.020581004 -1.0694751e-20)
(0.89773426 -0.11021528 -8.1682706e-21)
(0.98524774 -0.14735351 -2.5632207e-20)
(1.0722396 -0.11527917 -1.3363165e-20)
(1.1248982 -0.037118934 4.0235554e-20)
(1.1306937 0.063358447 4.9439562e-20)
(1.072555 0.11268471 -3.528716e-20)
(1.0110725 0.10271739 4.7538406e-21)
(0.98052144 0.066030837 3.9803688e-22)
(0.97731889 0.028644385 -3.7331302e-22)
(0.98778628 0.0037532161 -6.879035e-21)
(1.0026014 -0.0086055712 2.152557e-22)
(1.0155117 -0.012122437 2.713104e-22)
(1.0244641 -0.010382415 -8.9018152e-22)
(1.0291614 -0.0065453729 1.3845239e-23)
(1.0305571 -0.0028438664 -3.4374971e-22)
(1.030075 -0.00031015457 1.1137074e-22)
(1.0289219 0.00097736076 -5.6894695e-22)
(1.0278048 0.0014068886 -8.6551994e-23)
(1.0269528 0.001399503 -5.782657e-23)
(1.026325 0.0012460281 2.9741857e-23)
(1.0258286 0.0010854164 3.2559008e-22)
(1.0253688 0.00096096228 1.3525667e-22)
(1.0249092 0.00081867519 1.3741871e-23)
(1.0244469 0.00068698548 -9.3755785e-22)
(1.0240301 0.00042240996 6.4845563e-22)
(1.023712 0.00021908991 -1.7008496e-21)
(0.83937662 0.15070726 1.8784708e-20)
(0.82154381 0.15020156 0)
(0.82941068 0.01952197 0)
(0.88009807 -0.12281342 0)
(0.96993966 -0.1651761 8.6897426e-21)
(1.0624135 -0.13243282 -4.8267941e-20)
(1.1216135 -0.0473991 1.0249423e-21)
(1.1358125 0.069872746 2.3870172e-21)
(1.0866711 0.13430694 -6.2874812e-20)
(1.0105865 0.12471724 1.7915398e-20)
(0.96645255 0.080099747 -2.4675161e-21)
(0.96202696 0.033399397 -5.7751224e-22)
(0.97574255 0.0019136335 2.9702653e-21)
(0.99451707 -0.013773535 -5.6418894e-22)
(1.0116229 -0.018231408 2.4945729e-21)
(1.0237728 -0.015875382 3.2673314e-22)
(1.0304587 -0.01050108 -5.8885358e-22)
(1.0326319 -0.005081053 7.3086371e-23)
(1.0320664 -0.0011907695 6.4746362e-22)
(1.0304387 0.00089498346 5.3115985e-22)
(1.028808 0.0016335919 9.2290898e-23)
(1.0275958 0.0016558707 -2.1702438e-22)
(1.0267954 0.0014206724 4.2189043e-23)
(1.0262412 0.0011804075 -3.5205075e-23)
(1.0257891 0.0010104639 7.5024049e-24)
(1.0253389 0.00090832781 1.1880318e-22)
(1.0248668 0.00079392164 -6.3893269e-22)
(1.0243814 0.00068322186 6.4369277e-23)
(1.0239448 0.00042752392 -2.5597865e-21)
(1.0236103 0.00022508762 -1.0517118e-21)
(0.81600458 0.15347527 3.9349293e-21)
(0.80306888 0.15401389 -1.7068014e-20)
(0.81105757 0.018092324 0)
(0.86251578 -0.13486043 0)
(0.95321604 -0.18203132 0)
(1.0484788 -0.14917383 0)
(1.1143039 -0.056524828 0)
(1.1314166 0.074845405 -6.98027e-22)
(1.0940024 0.15661937 3.2658287e-20)
(1.0128205 0.15016357 -2.8097212e-20)
(0.95459263 0.096983625 1.1208563e-21)
(0.94356604 0.038213826 8.1371455e-22)
(0.96159521 -0.00068445147 -6.5343097e-21)
(0.98479294 -0.020285681 3.0568884e-21)
(1.006775 -0.026010516 -1.7308216e-22)
(1.0229036 -0.023012799 7.89575e-22)
(1.0321992 -0.015793278 -5.5545441e-22)
(1.0354878 -0.0081518377 1.5915815e-22)
(1.0348629 -0.0024026016 -4.9336738e-22)
(1.0325802 0.00083245168 -2.5100334e-22)
(1.030199 0.0020560016 -1.5870835e-23)
(1.0284075 0.0021204123 -4.163029e-22)
(1.0272922 0.0017461061 -3.1787913e-23)
(1.0266316 0.0013413194 -5.0279136e-23)
(1.0261794 0.0010650291 -6.4069944e-23)
(1.025774 0.00091565608 -1.3316965e-22)
(1.0253278 0.00085258561 -1.0510675e-22)
(1.0248364 0.00077372662 2.7461472e-22)
(1.0243218 0.00068575479 8.6197632e-24)
(1.0238622 0.00043782075 1.8894716e-21)
(1.0235093 0.00023247735 6.9080671e-22)
(0.79263713 0.15585112 -2.2862421e-20)
(0.78505918 0.15778615 5.2321563e-22)
(0.79392641 0.015994658 -4.136443e-20)
(0.84515675 -0.1461004 -4.3088825e-20)
(0.93569533 -0.19779695 0)
(1.0317524 -0.16498564 0)
(1.101905 -0.065058627 -1.7519644e-21)
(1.1197894 0.081483938 -8.3072814e-20)
(1.0839737 0.1773959 7.417361e-20)
(1.0117362 0.17753493 -4.2441688e-20)
(0.94687478 0.11742794 -3.5947106e-21)
(0.92354382 0.043654263 -3.9105919e-21)
(0.94474525 -0.0043623815 1.1446678e-21)
(0.9737228 -0.028278918 -4.1213501e-22)
(1.000762 -0.035685128 -1.4889925e-21)
(1.0218254 -0.032047402 1.7731037e-22)
(1.0344585 -0.022707573 -2.9538969e-22)
(1.0393262 -0.012282991 3.3817616e-24)
(1.0387275 -0.004045616 -3.9329665e-22)
(1.0355825 0.00081318916 -8.3351563e-22)
(1.0321378 0.0027605697 -1.0518536e-21)
(1.0294882 0.0029211953 1.0147003e-22)
(1.0278405 0.0023334202 4.3956183e-22)
(1.0269714 0.0016605108 -1.5027792e-22)
(1.0264985 0.001169001 -2.4614987e-22)
(1.0261547 0.00090824683 1.0929023e-22)
(1.0257887 0.00080972064 -1.5708135e-23)
(1.0253367 0.0007998089 -1.3994339e-22)
(1.0248162 0.00076277854 4.0401359e-22)
(1.0242667 0.00069670983 -6.6408656e-23)
(1.0237809 0.00045420913 9.6194265e-22)
(1.0234078 0.00024149079 7.4606813e-23)
(0.77079529 0.15770488 7.7751542e-21)
(0.76744882 0.16184591 2.1310837e-20)
(0.77664106 0.015774983 7.5851967e-20)
(0.82915543 -0.15724931 6.1628929e-20)
(0.91786839 -0.21221855 0)
(1.0132355 -0.17948508 0)
(1.0854479 -0.072895511 0)
(1.1050712 0.088837196 1.313088e-20)
(1.0668316 0.19745066 -6.6886976e-20)
(1.0044966 0.20311123 -3.3461136e-20)
(0.94156904 0.14046002 -4.8933551e-21)
(0.90528042 0.051021281 -3.3367979e-22)
(0.92523757 -0.0094065503 5.9296464e-21)
(0.96114408 -0.037777407 -4.836441e-21)
(0.99374976 -0.04732954 1.2892481e-21)
(1.0204625 -0.043235848 0)
(1.0373026 -0.031527257 -3.5652755e-22)
(1.0443553 -0.017727513 4.7411749e-22)
(1.0439601 -0.006249469 -1.8346408e-22)
(1.039737 0.00085742551 1.1480246e-22)
(1.0348312 0.0038664408 5.9774035e-22)
(1.0309455 0.0042080217 5.9573786e-22)
(1.0284991 0.003333689 1.0250906e-22)
(1.0272396 0.0022443232 -2.7986578e-22)
(1.026696 0.0014124025 3.2256709e-22)
(1.026425 0.00092030231 -3.6747813e-23)
(1.0261783 0.00072239757 -5.649707e-24)
(1.0258361 0.00070202833 -4.5437656e-24)
(1.0253644 0.0007571637 3.5299594e-22)
(1.0248052 0.00076421038 2.6907427e-22)
(1.0242149 0.00071749643 5.9235379e-23)
(1.0236996 0.00047745455 -2.7748475e-21)
(1.0233048 0.00025227744 1.0979041e-21)
(0.75119241 0.15907718 7.7634251e-21)
(0.75147773 0.16512918 -1.1585173e-21)
(0.75977985 0.016634523 1.6459172e-19)
(0.8118605 -0.16611359 1.4459468e-19)
(0.90054342 -0.22563232 -1.464455e-20)
(0.99365442 -0.19313326 -1.1045114e-20)
(1.0657102 -0.079926251 -1.6754906e-19)
(1.0864108 0.096287776 8.3929857e-20)
(1.048666 0.216126 -7.0333151e-22)
(0.99142197 0.22615471 9.1099773e-20)
(0.93496156 0.16395487 -1.8565489e-20)
(0.88995696 0.061241577 1.1386388e-21)
(0.9038835 -0.015274831 -1.5148371e-22)
(0.94676988 -0.049127213 -7.5150413e-22)
(0.98602688 -0.060835743 -4.8579866e-22)
(1.0185757 -0.056787679 -1.3381058e-21)
(1.0407349 -0.042534641 -3.843187e-22)
(1.0507504 -0.024787413 7.5403628e-22)
(1.0508887 -0.0091803729 1.73091e-22)
(1.0453904 0.00097455417 1.4987914e-22)
(1.0385371 0.0055202353 5.734501e-22)
(1.0329184 0.0061738986 5.1737961e-22)
(1.0293064 0.0049407766 -3.6503693e-22)
(1.0274422 0.0032553885 8.9347189e-22)
(1.026713 0.0018853555 -6.0778552e-22)
(1.0265132 0.0010282133 -2.6675615e-22)
(1.0264292 0.00061558179 -2.2930887e-22)
(1.0262567 0.00052508482 -4.6829936e-23)
(1.0259163 0.00060461764 1.6213376e-23)
(1.0254076 0.0007317013 -5.4177113e-23)
(1.0248012 0.00077786418 2.3194593e-22)
(1.0241644 0.00074964693 1.0941507e-23)
(1.0236169 0.00050801597 1.1497926e-21)
(1.0231992 0.00026489704 -2.0976616e-21)
(0.73436011 0.1600193 -7.4306394e-21)
(0.73725112 0.1678231 1.0824445e-21)
(0.74472687 0.016995185 -2.2812868e-19)
(0.7937708 -0.17400084 -8.0722807e-20)
(0.88090759 -0.23826034 6.0186835e-20)
(0.97306427 -0.20428275 1.0362334e-19)
(1.0435867 -0.086363006 2.1321609e-20)
(1.0648799 0.10336181 0)
(1.0273503 0.23403055 5.7554341e-20)
(0.97361095 0.24732616 1.1525595e-19)
(0.9234027 0.18611165 -9.0443402e-21)
(0.87601412 0.074090212 1.5090807e-21)
(0.88223852 -0.020901511 0)
(0.9305344 -0.062406092 -1.6878719e-21)
(0.97738831 -0.076205329 -1.4797195e-21)
(1.0162483 -0.072720206 2.6513706e-21)
(1.0446801 -0.056016608 5.493292e-21)
(1.0586588 -0.033794094 0)
(1.0598644 -0.013057499 -1.4972495e-21)
(1.0529448 0.0011685671 -2.5471743e-22)
(1.0435681 0.0078919642 1.5445593e-21)
(1.0355816 0.0090625169 9.9991254e-22)
(1.0303148 0.0073852825 0)
(1.027548 0.0049033806 -3.8099742e-22)
(1.0264897 0.0027435586 7.1377904e-22)
(1.0263341 0.0013146216 -5.3722452e-23)
(1.0264519 0.00054532587 -3.1119311e-22)
(1.0265205 0.00028060904 3.0552633e-22)
(1.0263898 0.000337482 1.0699483e-23)
(1.0260248 0.00052991802 1.6127344e-22)
(1.0254631 0.00072807377 -7.932379e-22)
(1.0247997 0.00081143129 -5.647142e-22)
(1.0241129 0.00079441724 0)
(1.0235313 0.00054599432 -4.5073824e-23)
(1.02309 0.00027932334 -6.4005949e-22)
(0.72064528 0.16057767 -6.9743884e-21)
(0.7251076 0.16986429 3.0542752e-20)
(0.73177054 0.017227293 -2.5976915e-19)
(0.7765928 -0.18157392 -3.4750225e-20)
(0.85972872 -0.25043815 9.8166199e-21)
(0.94991291 -0.21709559 3.1568835e-20)
(1.0197598 -0.090471187 1.354996e-19)
(1.0413675 0.11057419 -2.9050226e-21)
(1.0044698 0.25090662 0)
(0.95297008 0.2669533 -4.5270472e-20)
(0.90715027 0.20657414 2.9490588e-20)
(0.86199643 0.08827027 -1.8103615e-21)
(0.86141643 -0.025407707 3.8901139e-21)
(0.91268638 -0.077333613 -3.1689129e-21)
(0.96768224 -0.093552935 -5.5102079e-21)
(1.0136944 -0.090883794 -1.2358954e-21)
(1.0488196 -0.072280666 2.0547579e-20)
(1.0682452 -0.045091907 9.6014307e-21)
(1.0712438 -0.0181586 -2.8166977e-21)
(1.06286 0.0014156054 4.0481762e-21)
(1.0502988 0.011179153 -1.7289637e-21)
(1.0391373 0.013161984 -1.1957656e-21)
(1.0315903 0.010957651 0)
(1.0275243 0.0074202745 -6.7265423e-23)
(1.025943 0.0041826496 1.8961637e-22)
(1.0257684 0.0018958842 5.6058737e-22)
(1.0261423 0.00059138822 -8.6742854e-23)
(1.026526 1.2352973e-05 -3.6460189e-24)
(1.0267008 -4.7371621e-05 2.643511e-22)
(1.0265711 0.00017979896 0)
(1.0261551 0.00048724269 -8.443701e-23)
(1.0255254 0.00075118419 -8.5693246e-22)
(1.0247985 0.00086578007 1.9354862e-21)
(1.0240586 0.00085215514 -7.1682216e-22)
(1.0234418 0.00059120826 8.0832014e-23)
(1.0229765 0.00029545745 2.3028477e-21)
(0.71028154 0.16077414 7.4382468e-21)
(0.71552398 0.17129372 1.9196437e-22)
(0.72124581 0.017251738 9.6740413e-20)
(0.76098509 -0.18887214 1.5863021e-21)
(0.83841346 -0.26185944 -9.6424021e-20)
(0.92459817 -0.23101193 -7.4924925e-20)
(0.99506115 -0.098966639 -2.4153676e-21)
(1.0171007 0.11817965 1.1460627e-19)
(0.98094812 0.26715604 -5.8680909e-21)
(0.93110284 0.2850091 4.3504322e-20)
(0.88849144 0.22516362 1.8543451e-21)
(0.84731739 0.10223662 -9.5265209e-21)
(0.84186268 -0.028620831 -1.5831845e-21)
(0.89381717 -0.093358493 -3.1976637e-21)
(0.9568088 -0.11278876 1.9263404e-20)
(1.0106324 -0.11122485 6.2827731e-21)
(1.0532488 -0.091559469 -1.2584113e-20)
(1.0796329 -0.059133091 -1.1682668e-20)
(1.0854138 -0.024837985 1.003257e-20)
(1.0756538 0.0016533005 1.7554394e-21)
(1.0591576 0.01560382 -1.7559215e-21)
(1.0438222 0.018825776 4.5354086e-22)
(1.0331962 0.015997281 1.1462455e-21)
(1.0273293 0.011090883 0)
(1.0249701 0.0064090135 -7.1448127e-22)
(1.0246916 0.0029313526 1.003405e-21)
(1.0253537 0.0008169031 -7.9779827e-22)
(1.0261593 -0.00022497845 1.2420626e-21)
(1.0267391 -0.0005179168 6.6693799e-24)
(1.0269611 -0.00033307614 -3.2458285e-22)
(1.0267915 6.8045522e-05 -1.7949299e-22)
(1.0263007 0.00048328011 -4.2929615e-22)
(1.0255907 0.00080408231 -1.2111765e-23)
(1.0247946 0.00094123613 2.0146568e-21)
(1.0239994 0.00092278462 -8.2925862e-23)
(1.0233471 0.00064325697 -7.0504789e-23)
(1.022858 0.00031314122 8.4498498e-22)
(0.70330385 0.1606048 -2.9372426e-22)
(0.7091247 0.17218869 -3.303077e-20)
(0.71336996 0.017041285 1.5350961e-19)
(0.74737219 -0.19566165 3.8350171e-20)
(0.81768693 -0.2724847 -3.0527673e-21)
(0.89848021 -0.24398262 6.5922162e-21)
(0.9675063 -0.11247527 5.0931475e-20)
(0.99362543 0.12020042 -4.5203031e-20)
(0.95785901 0.2818785 0)
(0.90906072 0.30134398 -8.9637823e-21)
(0.86891897 0.24191164 0)
(0.83181832 0.11529312 0)
(0.82363566 -0.030814292 -1.073976e-20)
(0.87469018 -0.10985205 1.3471838e-21)
(0.94483201 -0.13366953 4.5582968e-21)
(1.0067022 -0.1336855 1.2475552e-20)
(1.0578654 -0.11356722 -2.0703886e-20)
(1.0925336 -0.076551706 -2.266453e-20)
(1.1029105 -0.033580604 -1.3687304e-20)
(1.0919625 0.0017556926 -3.3428764e-21)
(1.0706428 0.02141883 4.1746092e-21)
(1.0498986 0.026469869 1.2135863e-21)
(1.0351848 0.022903125 -5.6690713e-22)
(1.0269015 0.016244056 -2.8786881e-21)
(1.0234409 0.0096635035 -4.0202846e-22)
(1.0229552 0.00458743 3.7067892e-22)
(1.02392 0.0013229807 2.6962134e-22)
(1.025269 -0.00040555269 -8.6005572e-22)
(1.0263957 -0.0010634298 -5.4397489e-23)
(1.027085 -0.0010027671 -1.276936e-21)
(1.0272874 -0.00055766016 -2.1605699e-22)
(1.0270402 1.0406954e-05 -1.2180761e-22)
(1.0264544 0.00052183125 -6.0372791e-23)
(1.0256548 0.00088854056 1.1634059e-21)
(1.0247854 0.0010374195 -4.0265042e-21)
(1.0239341 0.0010056796 -8.1497266e-22)
(1.0232466 0.00070155187 -7.9993811e-22)
(1.0227343 0.00033217922 0)
(0.70013461 0.16008807 -1.4320783e-20)
(0.7062548 0.17259345 -2.784259e-22)
(0.70802655 0.016587244 5.1248175e-20)
(0.73623912 -0.20175536 3.8865156e-20)
(0.79812842 -0.2821144 7.0835176e-20)
(0.87200176 -0.25565812 1.8904862e-20)
(0.93797336 -0.12423739 -7.2790251e-21)
(0.96829908 0.11337205 -2.2061063e-19)
(0.93575478 0.29355401 8.1610979e-21)
(0.88774278 0.31599527 -1.1528357e-19)
(0.84990168 0.25626995 3.7945114e-21)
(0.81595854 0.127152 0)
(0.80676733 -0.032185141 0)
(0.85593201 -0.12634961 1.2365188e-20)
(0.93194489 -0.15587505 -2.8534292e-20)
(1.0018941 -0.15803729 -2.3504874e-20)
(1.0621014 -0.138367 1.2968629e-20)
(1.106432 -0.097401953 2.0044079e-20)
(1.1238172 -0.044785957 -2.3991031e-20)
(1.112559 0.0014880974 1.1984802e-21)
(1.0853942 0.028857716 -1.5764906e-22)
(1.0576586 0.036570074 9.0655743e-23)