/*--------------------------------*- C++ -*----------------------------------*\
  =========                 |
  \\      /  F ield         | OpenFOAM: The Open Source CFD Toolbox
   \\    /   O peration     | Website:  https://openfoam.org
    \\  /    A nd           | Version:  8
     \\/     M anipulation  |
\*---------------------------------------------------------------------------*/
FoamFile
{
    version     2.0;
    format      ascii;
    class       volVectorField;
    location    "300.966377299864348";
    object      U_0;
}
// * * * * * * * * * * * * * * * * * * * * * * * * * * * * * * * * * * * * * //

dimensions      [0 1 -1 0 0 0 0];

internalField   nonuniform List<vector> 
9200
(
(1.0371427 0.00066349589 -4.6765597e-24)
(1.0373304 0.0021086816 1.2768648e-21)
(1.0350702 0.00063784338 0)
(1.0376518 0.0034034148 -6.8282549e-22)
(1.035204 0.0020573334 1.0094858e-21)
(1.0342333 0.00061732901 0)
(1.0381048 0.0047139746 -6.6213538e-23)
(1.0354574 0.0033120145 -2.7194077e-24)
(1.0343554 0.0020011573 0)
(1.0330315 0.00059026751 0)
(1.0386757 0.0060101319 1.4577488e-21)
(1.0357766 0.0045839477 1.0324802e-21)
(1.0345829 0.0032125916 5.7813756e-22)
(1.0331347 0.0019232192 3.4394767e-23)
(1.0320875 0.00057004435 4.8395617e-25)
(1.0393713 0.0073605158 1.3522137e-21)
(1.0361379 0.0058384891 -5.1903999e-24)
(1.0348562 0.0044273783 1.9453534e-21)
(1.0333403 0.0030781902 8.0869126e-22)
(1.0321824 0.0018608451 3.8266698e-23)
(1.031146 0.0005512094 -1.4017763e-21)
(1.040195 0.0088068438 1.8238269e-21)
(1.0365053 0.0071452784 1.3018668e-21)
(1.0351358 0.0055959697 -1.1476218e-21)
(1.0335849 0.0042231236 -9.0543808e-23)
(1.0323764 0.0029739562 6.8229421e-22)
(1.0312324 0.0018013493 6.9947766e-22)
(1.0302836 0.00053316867 1.2801961e-22)
(1.0411248 0.010412624 1.8050838e-21)
(1.0368433 0.0085532471 1.1940308e-21)
(1.0353711 0.0067547583 1.4190907e-21)
(1.0338394 0.0052978416 1.3100725e-22)
(1.032611 0.0040676262 -1.7938658e-21)
(1.031419 0.0028820011 -7.9944351e-22)
(1.0303599 0.0017420534 -7.5761783e-22)
(1.0294758 0.00051254573 1.2598365e-21)
(1.0421074 0.012255275 -2.8248576e-21)
(1.0370749 0.010118621 7.8479146e-22)
(1.0355176 0.0079167182 1.8582189e-22)
(1.0340571 0.006310608 6.1575415e-22)
(1.0328721 0.0050779653 2.6120637e-22)
(1.031652 0.0039446409 -2.6100362e-21)
(1.0305331 0.0027946097 1.1680449e-22)
(1.0295399 0.0016727249 -1.2761016e-21)
(1.0287324 0.00048693444 -2.6387614e-21)
(1.043092 0.014411512 3.0979479e-21)
(1.0370721 0.011882425 5.091328e-22)
(1.0355246 0.0090961605 -1.1286093e-22)
(1.0342042 0.0072438851 -5.2384609e-22)
(1.0331303 0.0059985861 -2.7787376e-22)
(1.0319307 0.0049294958 4.0766332e-22)
(1.0307539 0.0038358609 9.0839385e-22)
(1.0296944 0.0026919926 1.4859273e-21)
(1.0287829 0.00158533 8.5168197e-22)
(1.0280581 0.0004552682 2.1868876e-22)
(1.0441007 0.016998927 -1.2341509e-21)
(1.0366986 0.013884085 1.2409107e-21)
(1.0352891 0.010296251 4.4854952e-22)
(1.0342319 0.008064191 -9.8879988e-22)
(1.0333737 0.0067916809 5.4777971e-22)
(1.0322481 0.005827521 -2.2427859e-21)
(1.031039 0.0048187152 1.2807519e-22)
(1.0298896 0.003706135 2.1688064e-21)
(1.0289145 0.0025577315 -1.0690497e-21)
(1.0280954 0.0014764888 2.3833546e-21)
(1.0274582 0.0004179969 -3.387871e-22)
(1.0451791 0.020160716 -6.1531454e-22)
(1.0358265 0.016205294 -2.531534e-21)
(1.0346604 0.011469948 -1.079939e-21)
(1.0340763 0.0087379785 0)
(1.0335775 0.0073993438 5.2334868e-23)
(1.0326137 0.0065976547 -5.0900426e-22)
(1.0313968 0.0057360511 -4.4460505e-22)
(1.0301567 0.0046884227 -1.0697939e-21)
(1.0290725 0.0035281079 -4.1955009e-22)
(1.0282034 0.0023845545 -1.3480364e-21)
(1.0274859 0.0013482311 -8.9986986e-22)
(1.0269347 0.00037661239 2.1077991e-22)
(1.0462903 0.024060288 -1.1906906e-22)
(1.0342915 0.018961513 1.1650816e-21)
(1.0334302 0.012615306 0)
(1.0336578 0.0091613231 0)
(1.0337427 0.0077646849 -1.4917696e-22)
(1.033028 0.0071870904 -3.6156374e-22)
(1.0318554 0.0065613358 -5.2450514e-22)
(1.0305078 0.0056404543 1.3051138e-21)
(1.0292929 0.0044911578 1.4370917e-22)
(1.0283201 0.0032888373 5.0250492e-24)
(1.0275738 0.0021760662 1.4269902e-21)
(1.0269569 0.0012065677 -1.4750358e-21)
(1.0264867 0.0003350174 3.1673394e-21)
(1.0472502 0.028924307 2.8940142e-21)
(1.0319064 0.022266975 -1.784908e-22)
(1.0314413 0.013715545 8.0295749e-22)
(1.0327559 0.009236303 -4.7077994e-22)
(1.0339338 0.007797711 5.928491e-23)
(1.0335704 0.0075394773 -1.7465845e-22)
(1.0324562 0.0072646294 3.6269888e-22)
(1.0309843 0.0065637591 2.7078993e-23)
(1.0295808 0.005464931 1.5481527e-21)
(1.0284678 0.0041952588 1.4527137e-21)
(1.0276546 0.0029911477 4.0710038e-22)
(1.0270327 0.0019438316 1.1814563e-21)
(1.0265076 0.0010616526 7.9179273e-22)
(1.0261083 0.0002963548 -8.5411251e-22)
(1.0479438 0.034662658 -8.280268e-21)
(1.0284411 0.026384317 -6.4759506e-21)
(1.0284825 0.014751976 -5.7675959e-22)
(1.031294 0.008810751 1.4432386e-22)
(1.0339923 0.0072944939 -7.6130284e-23)
(1.0343605 0.0075968661 2.3574859e-22)
(1.0332889 0.0077861186 3.4856333e-22)
(1.0316397 0.0074668398 -4.8536916e-22)
(1.0299669 0.0064810708 -1.8462688e-22)
(1.0286503 0.0051416167 -1.8500051e-22)
(1.027734 0.0038041109 -2.4338978e-23)
(1.0270915 0.0026524338 -2.6471769e-22)
(1.0265813 0.0017037101 -1.4223211e-21)
(1.0261333 0.00092381885 7.0243682e-22)
(1.0257908 0.00026278898 -6.3515942e-22)
(1.0484994 0.041405259 -3.2679424e-21)
(1.0239827 0.031205099 3.6775606e-21)
(1.0242353 0.015718093 -1.9583283e-21)
(1.0291423 0.0077592221 1.0689233e-21)
(1.033907 0.0060498076 -3.7884989e-22)
(1.0354903 0.0072125216 -6.9383036e-22)
(1.0343367 0.0081669947 2.7420795e-22)
(1.0324602 0.008373441 4.8368174e-23)
(1.030461 0.007595011 -3.019624e-22)
(1.0288633 0.0061777236 -5.8055803e-22)
(1.0277956 0.0046502667 -2.6625028e-21)
(1.027125 0.0033462544 3.6136799e-22)
(1.0266344 0.0022983773 4.3097813e-22)
(1.0262149 0.0014746825 2.5022597e-22)
(1.0258245 0.00080058909 7.6672909e-23)
(1.0255241 0.00023562757 6.9763497e-22)
(1.048688 0.04928247 0)
(1.0184135 0.036889676 6.9234087e-21)
(1.0188012 0.01659286 6.5537807e-22)
(1.0260755 0.0058950115 0)
(1.033668 0.0038718988 0)
(1.036967 0.0061509285 0)
(1.0360088 0.0084458881 7.7555828e-23)
(1.0335254 0.0093498946 8.2877663e-22)
(1.0310064 0.0088819915 7.3582224e-22)
(1.0290696 0.0073699753 9.05234e-22)
(1.0278252 0.005592255 2.2508504e-22)
(1.0270989 0.004041803 5.7593036e-22)
(1.0266512 0.0028636966 4.1360921e-23)
(1.026278 0.0019589792 -4.9416075e-22)
(1.0259223 0.0012709454 -1.7426386e-22)
(1.0255698 0.00069656009 -3.3498448e-22)
(1.0252976 0.00021528299 0)
(1.0493007 0.05813945 -5.8978292e-21)
(1.0114581 0.043689823 -1.0805597e-20)
(1.0121469 0.017303338 1.0962306e-20)
(1.0219311 0.0030681431 3.2652482e-21)
(1.0332387 0.00053050699 1.254858e-21)
(1.0388663 0.0042433892 0)
(1.0384462 0.0084319495 -1.4983283e-22)
(1.0351676 0.010441221 -2.377417e-22)
(1.0317172 0.010407914 6.5668843e-22)
(1.0292138 0.0087984973 1.1436954e-21)
(1.0277515 0.0066797168 -5.2322201e-22)
(1.0269836 0.0047906805 2.9570551e-22)
(1.026589 0.0033917515 7.4332133e-22)
(1.0263052 0.0023989883 -1.6339919e-21)
(1.0260091 0.0016600421 -5.391633e-22)
(1.0256886 0.0011012004 -2.1933878e-21)
(1.0253577 0.00061343939 -8.9682402e-22)
(1.0251021 0.0002014577 -8.5507818e-22)
(1.0516915 0.068035149 -4.9893277e-23)
(1.0034278 0.051587117 -7.0523199e-21)
(1.0038313 0.017964804 -1.4699293e-21)
(1.0169837 -0.00087142393 4.0436895e-21)
(1.032515 -0.0042770706 -1.7479244e-22)
(1.0413469 0.0012643527 1.1532786e-22)
(1.0417712 0.0080209038 -2.7496126e-23)
(1.0375679 0.011747128 6.0120268e-23)
(1.032763 0.012314974 -2.9851392e-22)
(1.029308 0.010561101 -1.2352822e-21)
(1.0274865 0.0079825181 -3.0823422e-22)
(1.0266979 0.0056257886 -9.9454382e-22)
(1.0264093 0.0039119703 -1.2025247e-22)
(1.0262546 0.0027672622 2.0062633e-22)
(1.0260692 0.001991098 2.7573532e-22)
(1.0258081 0.0014153337 3.198014e-22)
(1.0254992 0.00096881475 -7.0950562e-22)
(1.0251772 0.00055056213 2.5011866e-23)
(1.0249294 0.00019333026 -8.0246483e-22)
(1.0534577 0.079397225 -2.6373709e-21)
(0.99543828 0.060998004 8.6749943e-21)
(0.99345623 0.018437596 -3.0572693e-20)
(1.0111351 -0.0059950182 -2.1395951e-21)
(1.0316411 -0.01079753 1.0235477e-21)
(1.0445763 -0.0030279369 2.6114816e-22)
(1.0462457 0.0070779783 -2.4503068e-22)
(1.0409337 0.013323577 -1.1491658e-21)
(1.0342603 0.014812791 -1.0333853e-22)
(1.0293662 0.012842416 -2.4478601e-22)
(1.0269507 0.0095895976 -1.6129257e-21)
(1.026128 0.0065860178 5.3768573e-22)
(1.0260344 0.0044274118 5.9902871e-22)
(1.0260937 0.0030707918 -5.4993836e-23)
(1.0260676 0.0022212737 2.2151375e-22)
(1.0259172 0.0016634651 9.5021601e-22)
(1.025655 0.0012281506 -1.4111562e-22)
(1.0253412 0.00087242562 1.1647527e-21)
(1.0250194 0.00050565782 3.1368986e-22)
(1.0247733 0.00018977828 8.3603492e-22)
(1.0488904 0.090907557 1.4996572e-21)
(0.9880555 0.072719993 1.4736022e-20)
(0.98115913 0.019078653 3.1707776e-21)
(1.0035975 -0.012546349 5.1298696e-21)
(1.0308083 -0.019065353 1.0922484e-21)
(1.0486439 -0.0090919499 8.4614516e-22)
(1.0522406 0.0054838311 -3.5763764e-21)
(1.0455469 0.015247335 -2.3287846e-21)
(1.036344 0.018122503 2.1343315e-21)
(1.0294012 0.015871253 0)
(1.0260568 0.011636359 1.181686e-21)
(1.0251593 0.0077193185 1.1351008e-21)
(1.0253439 0.0049354791 -3.4632953e-22)
(1.0257607 0.0032735739 -3.9843581e-22)
(1.0259896 0.0023457816 -4.8869799e-22)
(1.0259909 0.0017910818 7.2601208e-22)
(1.0258205 0.0014214273 2.4672812e-22)
(1.0255328 0.0010936899 -3.0699411e-22)
(1.0252049 0.00080711574 6.7028714e-22)
(1.0248773 0.0004754282 5.2921215e-23)
(1.0246289 0.00018958725 8.0216769e-22)
(1.0360788 0.10140423 9.4450363e-21)
(0.97929955 0.085799578 1.1735345e-20)
(0.96747934 0.020188502 1.9962069e-20)
(0.99424645 -0.020704917 -1.1955318e-20)
(1.029479 -0.029233452 -1.5814044e-21)
(1.053378 -0.016860459 6.6217829e-22)
(1.0600784 0.0029500055 0)
(1.0518011 0.017558307 -1.6895777e-21)
(1.0391526 0.022515819 -1.1360563e-21)
(1.0293831 0.019918475 9.6525879e-22)
(1.0246968 0.014301814 1.1675865e-21)
(1.0236481 0.009082014 5.5367591e-22)
(1.0242203 0.0054302096 -2.1551249e-22)
(1.0251438 0.0033435825 3.7085536e-22)
(1.025799 0.0023004482 -3.4491393e-23)
(1.0260302 0.0017844864 1.2130385e-22)
(1.0259812 0.0014869444 -9.1349037e-23)
(1.0257541 0.0012572393 5.5513256e-22)
(1.025429 0.0010032187 1.5864927e-22)
(1.0250828 0.00076593163 2.0763945e-23)
(1.0247461 0.00045609312 4.1329869e-22)
(1.0244931 0.00019162849 0)
(1.017594 0.11097052 5.7880928e-21)
(0.96647051 0.098689229 -5.4544875e-21)
(0.95380781 0.022056181 -1.1649023e-22)
(0.98321198 -0.030459505 -1.214803e-20)
(1.0273995 -0.0415833 7.2916863e-22)
(1.0587724 -0.02642989 -2.4712008e-21)
(1.06917 -0.00057774105 -1.6756453e-22)
(1.0600619 0.020495522 -4.8520458e-21)
(1.0428767 0.028251015 -1.1069358e-21)
(1.0292458 0.0252847 2.3497034e-22)
(1.0227184 0.017790271 -1.0060021e-22)
(1.0214122 0.01074689 -1.8044365e-21)
(1.0225166 0.0059008435 -8.7943012e-23)
(1.0241454 0.003215837 2.0962893e-21)
(1.0254083 0.0020298605 8.7211021e-22)
(1.0260351 0.0015836361 5.1602453e-22)
(1.0261527 0.0014088965 -1.8999984e-22)
(1.0259994 0.0012963738 -8.0062562e-22)
(1.0256991 0.0011545878 -1.5028513e-23)
(1.0253353 0.00094705881 3.348843e-22)
(1.0249698 0.00074155088 0)
(1.0246229 0.00044412062 -9.3373229e-22)
(1.024364 0.00019497913 -3.9978478e-25)
(0.99563313 0.11938891 -1.5073592e-20)
(0.95094258 0.11020832 -7.082101e-21)
(0.94053644 0.025020443 2.1359136e-20)
(0.97071587 -0.041496954 6.6457265e-21)
(1.0243001 -0.056041745 -4.7862903e-21)
(1.0646178 -0.038075133 0)
(1.0795676 -0.0051797912 -1.1469645e-22)
(1.069759 0.024115021 -3.2676632e-21)
(1.0476067 0.03593753 -1.2847897e-21)
(1.028936 0.032281598 3.9156009e-21)
(1.0199472 0.022322112 6.428518e-22)
(1.0182411 0.012802667 -8.2466599e-22)
(1.0200421 0.0063201729 7.3425976e-22)
(1.0226494 0.0028269071 2.9312939e-22)
(1.0247505 0.0014262979 -2.4004873e-22)
(1.0259553 0.0011117642 -1.2154948e-21)
(1.0263575 0.0011410677 -5.4839542e-22)
(1.0262925 0.0012054295 -2.5432052e-22)
(1.0260158 0.0011949158 6.7468632e-22)
(1.0256435 0.0010949214 -1.693531e-22)
(1.0252476 0.00091500317 -6.9361494e-22)
(1.0248634 0.00072769822 8.2022786e-22)
(1.0245062 0.00043679347 -6.7066624e-22)
(1.0242403 0.00019895556 9.4106631e-25)
(0.97058394 0.12680943 -8.3076934e-21)
(0.93187145 0.12067858 -3.7300108e-21)
(0.92562354 0.027623771 -3.1449312e-21)
(0.95704345 -0.053375857 -2.6622226e-20)
(1.0197504 -0.072406475 4.781003e-21)
(1.0701931 -0.051557534 1.6963722e-20)
(1.0910749 -0.010819492 -1.8956323e-22)
(1.0806663 0.028401177 1.1395083e-20)
(1.0528677 0.045628963 -2.5895076e-21)
(1.028339 0.041534115 1.0690467e-22)
(1.0161037 0.028113491 1.7736509e-21)
(1.0138892 0.015338008 3.0275199e-21)
(1.016579 0.0066566784 1.9839428e-22)
(1.0205014 0.0020754602 -1.7587396e-22)
(1.0237628 0.00038687181 -9.9286491e-22)
(1.0257592 0.0002455103 5.7808414e-23)
(1.0265968 0.00061231141 -1.070352e-22)
(1.0266737 0.00094943861 -3.2906677e-22)
(1.0264051 0.0011338417 0)
(1.0260111 0.0011522608 -9.4133034e-23)
(1.0255834 0.0010621138 -2.653033e-23)
(1.0251646 0.00089676765 5.5793168e-23)
(1.0247625 0.0007195822 -4.8472482e-23)
(1.0243951 0.00043217531 9.5024889e-22)
(1.0241212 0.00020311039 5.6854321e-22)
(0.94403265 0.13317903 1.2477308e-20)
(0.91045972 0.1299783 4.8557162e-22)
(0.90798526 0.029825908 4.7596532e-21)
(0.94246047 -0.065565327 2.4613724e-21)
(1.0134187 -0.090447075 1.8373978e-21)
(1.074916 -0.066807853 -7.1541382e-21)
(1.1025488 -0.017331295 -2.971322e-22)
(1.0921789 0.033835946 -1.0729439e-21)
(1.0581194 0.057675769 -6.0220979e-21)
(1.0271804 0.052996357 2.8881852e-21)
(1.010887 0.035597897 6.0452848e-22)
(1.0080204 0.018418215 -5.6021547e-22)
(1.0118875 0.006869675 -1.592018e-21)
(1.0175255 0.00084189331 -2.4629633e-22)
(1.0223524 -0.0012358368 -5.9503241e-22)
(1.0254449 -0.0011400852 1.2169652e-21)
(1.0268815 -0.00029494499 2.2822864e-21)
(1.0271813 0.00048571428 3.829871e-22)
(1.0269148 0.00095138155 5.5438979e-22)
(1.0264637 0.0011448409 2.7265827e-23)
(1.0259844 0.0011400452 -7.0774849e-22)
(1.0255216 0.0010441397 -1.6912481e-22)
(1.0250854 0.00088346342 6.0761864e-22)
(1.0246671 0.00071352042 -7.9350537e-22)
(1.0242893 0.00042899215 7.3037009e-22)
(1.0240064 0.00020724364 -3.9862843e-23)
(0.91712967 0.13861345 -6.3035502e-22)
(0.88818787 0.13803621 -6.9961134e-21)
(0.88870567 0.03140139 -9.6991671e-21)
(0.92691946 -0.077850321 1.0289942e-20)
(1.0042154 -0.10927338 -5.8392649e-21)
(1.0771103 -0.083680981 -3.3987632e-20)
(1.1134779 -0.025089536 -2.7080329e-20)
(1.1039724 0.040515902 -1.6740569e-20)
(1.0626477 0.072589052 1.3297136e-20)
(1.0247053 0.06703406 4.9352687e-22)
(1.0041958 0.044768044 -1.0433844e-21)
(1.0002034 0.022167088 -3.1494559e-21)
(1.0056874 0.0068922792 2.4031634e-21)
(1.0135324 -0.001010002 -1.442737e-21)
(1.0204113 -0.0036166326 -8.4793288e-23)
(1.0249934 -0.0032125084 3.6699463e-22)
(1.0272629 -0.0017065348 -2.8088373e-22)
(1.0278737 -0.0002765914 2.2449723e-22)
(1.0276055 0.00063780237 4.1797996e-23)
(1.0270439 0.0010682209 1.1936877e-22)
(1.0264625 0.0011876908 0)
(1.0259373 0.0011347571 -2.2231941e-22)
(1.0254601 0.0010294803 -3.5119743e-23)
(1.0250105 0.00086869144 0)
(1.0245781 0.00070734888 9.7199078e-22)
(1.0241889 0.00042689317 -8.8279683e-24)
(1.0238955 0.0002114405 -5.8123454e-22)
(0.89079892 0.14319393 -4.233059e-21)
(0.86592829 0.1449665 -9.9195961e-23)
(0.86854997 0.032268546 8.3588341e-22)
(0.91031707 -0.090204933 1.3241495e-21)
(0.99248923 -0.12810336 5.6413112e-21)
(1.0739708 -0.10137658 4.6021955e-20)
(1.1221055 -0.034346204 2.7048842e-21)
(1.1179553 0.047859192 2.2853065e-20)
(1.0679517 0.090139091 -8.4204703e-22)
(1.020229 0.08392824 -4.4258086e-21)
(0.99532022 0.055810044 -6.0693999e-21)
(0.9903967 0.026624155 -3.3465916e-21)
(0.99761723 0.0066124939 -2.4326989e-21)
(1.0083222 -0.0036361893 1.4452729e-23)
(1.0178247 -0.0069537442 -1.3281719e-21)
(1.0243801 -0.0061731042 -2.5974402e-23)
(1.0277972 -0.0037815632 -1.4396744e-21)
(1.0288456 -0.0014368144 -5.5763702e-22)
(1.0285698 0.00014886624 -3.4260956e-22)
(1.0278181 0.0009486811 -9.0795982e-22)
(1.0270561 0.0012213473 -1.6205126e-22)
(1.0264124 0.0012253589 1.2233858e-22)
(1.0258784 0.0011220586 2.0485107e-23)
(1.0254016 0.0010059486 0)
(1.0249445 0.00085009566 0)
(1.0244965 0.00070108479 -6.8360876e-23)
(1.0240936 0.00042639763 9.8765317e-22)
(1.023788 0.00021594231 1.1385252e-21)
(0.865623 0.14699364 0)
(0.84430042 0.15087039 -8.3652608e-21)
(0.84845753 0.032526058 -1.1111738e-20)
(0.89302491 -0.10244174 -7.6971675e-21)
(0.97887522 -0.14654998 -1.6640564e-20)
(1.0665644 -0.1192539 -1.3351327e-20)
(1.1228727 -0.045034615 3.8834351e-20)
(1.1321565 0.054385022 5.4800251e-20)
(1.0780474 0.10933505 -3.3750218e-20)
(1.0161667 0.10350218 4.9036363e-21)
(0.98351546 0.068861613 3.8293258e-22)
(0.97822702 0.031642298 -4.3235089e-22)
(0.98741338 0.0059967679 -6.8971429e-21)
(1.0016684 -0.0072158484 1.7610519e-22)
(1.0144707 -0.011458941 2.6630647e-22)
(1.0235788 -0.010251785 -9.3613288e-22)
(1.028551 -0.0067174994 1.896936e-23)
(1.0302186 -0.0031201957 -3.5344043e-22)
(1.0299346 -0.00056614443 1.180439e-22)
(1.0288921 0.00079209884 -5.5488833e-22)
(1.0278178 0.0012947023 -9.2935528e-23)
(1.0269716 0.0013441541 -6.5550006e-23)
(1.026334 0.0012268317 2.8942314e-23)
(1.025825 0.0010852133 3.7200202e-22)
(1.0253553 0.00096931547 1.4431255e-22)
(1.0248887 0.00082914276 1.4391839e-23)
(1.024422 0.00069611472 -9.7843778e-22)
(1.0240027 0.00042847037 6.720052e-22)
(1.0236831 0.00022107619 -1.7557117e-21)
(0.84200797 0.15014189 1.7407159e-20)
(0.82402646 0.15578944 0)
(0.82889765 0.032299777 0)
(0.87527398 -0.11436274 0)
(0.96351644 -0.16434377 6.0580945e-21)
(1.0563179 -0.13688226 -4.8236564e-20)
(1.1194639 -0.05620264 4.7308899e-22)
(1.1363583 0.058803672 2.4027536e-21)
(1.093159 0.13011733 -6.0587525e-20)
(1.0166147 0.12565358 1.9385028e-20)
(0.97014449 0.083751448 -2.9237224e-21)
(0.96303064 0.037289295 -5.3669155e-22)
(0.97520112 0.004803891 3.0090265e-21)
(0.99325939 -0.011970699 -4.8972424e-22)
(1.0102243 -0.01735146 2.6262568e-21)
(1.0225554 -0.015696538 3.3310307e-22)
(1.0295963 -0.010745211 -6.3219936e-22)
(1.0321439 -0.005486154 5.1756346e-23)
(1.0318658 -0.001576361 6.4119847e-22)
(1.0304059 0.000610049 5.2070103e-22)
(1.0288454 0.0014587344 9.5894018e-23)
(1.0276442 0.0015677397 -2.1112073e-22)
(1.0268286 0.0013881561 1.7379609e-23)
(1.0262542 0.0011776679 -1.3607363e-23)
(1.0257853 0.0010217402 3.9185322e-24)
(1.0253234 0.00092387253 1.2988025e-22)
(1.0248439 0.00080846534 -6.7590328e-22)
(1.0243544 0.00069431924 6.5166869e-23)
(1.0239157 0.00043425926 -2.6508436e-21)
(1.02358 0.0002271777 -1.0845634e-21)
(0.81842863 0.15291743 3.5535511e-21)
(0.80538184 0.15987034 -1.6284854e-20)
(0.81046992 0.031612103 0)
(0.85763959 -0.12579711 0)
(0.94683021 -0.18115104 0)
(1.0425398 -0.15397797 0)
(1.1121899 -0.066422077 0)
(1.1330541 0.061980032 -6.4710175e-22)
(1.1019967 0.15172915 3.4483609e-20)
(1.0199721 0.15117435 -3.0690772e-20)
(0.95928672 0.1015352 1.1812119e-21)
(0.94468129 0.043168379 6.7333498e-22)
(0.96078375 0.0029594149 -6.3441386e-21)
(0.98316722 -0.017993209 3.2007734e-21)
(1.0049312 -0.024868956 -1.9102759e-22)
(1.0212662 -0.022766607 8.45602e-22)
(1.0310036 -0.01612517 -6.1562069e-22)
(1.0347933 -0.0087285984 1.7023425e-22)
(1.0345765 -0.0029695683 -4.6766301e-22)
(1.0325427 0.00040415446 -2.4314917e-22)
(1.0302706 0.0017884857 -1.5805142e-23)
(1.0285008 0.0019830595 -4.0932292e-22)
(1.0273637 0.0016936673 -3.0827379e-23)
(1.0266716 0.0013342074 -4.0388411e-23)
(1.0261923 0.0010794086 -6.2511233e-23)
(1.0257674 0.00093780641 -1.7527828e-22)
(1.0253088 0.00087452372 -1.1675201e-22)
(1.0248105 0.00079135747 2.9045251e-22)
(1.0242925 0.00069809888 8.6997515e-24)
(1.0238312 0.00044484856 1.9550604e-21)
(1.0234776 0.00023455116 7.1210578e-22)
(0.79485358 0.15530672 -2.0272319e-20)
(0.78722267 0.16388707 7.1560036e-22)
(0.79322251 0.030211867 -4.1922401e-20)
(0.84025304 -0.13647983 -4.4279681e-20)
(0.9294 -0.19690162 0)
(1.0259585 -0.17020761 0)
(1.0995774 -0.076222058 -2.0723383e-21)
(1.1229219 0.066866267 -8.0671528e-20)
(1.0920736 0.17148584 8.1783954e-20)
(1.0196002 0.17869738 -4.4930824e-20)
(0.95256753 0.12292392 -3.8126064e-21)
(0.92501593 0.049915562 -4.1409343e-21)
(0.94355024 0.00012731153 1.1340448e-21)
(0.97165883 -0.02543473 -4.3228688e-22)
(0.99838173 -0.034226683 -1.6395659e-21)
(1.0196662 -0.031710459 1.7603629e-22)
(1.032831 -0.023142943 -9.5627483e-23)
(1.0383516 -0.013082067 -2.3589033e-24)
(1.038319 -0.0048597497 -3.6950292e-22)
(1.0355381 0.00018131213 -7.746343e-22)
(1.0322597 0.0023591154 -1.0136426e-21)
(1.0296466 0.0027121142 1.0337526e-22)
(1.0279702 0.0022520989 4.0272369e-22)
(1.027053 0.0016470997 -1.5441555e-22)
(1.0265384 0.0011877662 -2.3075694e-22)
(1.0261636 0.00093942148 8.761014e-23)
(1.0257771 0.00084163616 -2.7622792e-23)
(1.0253132 0.00082685248 -1.5180066e-22)
(1.024787 0.00078227797 4.2690362e-22)
(1.024235 0.00070962804 -6.7742555e-23)
(1.0237481 0.00046114699 9.9329068e-22)
(1.0233748 0.00024343707 7.6840314e-23)
(0.77277022 0.15716318 6.6662858e-21)
(0.76941715 0.16812357 2.0137809e-20)
(0.77591308 0.030604806 7.6747824e-20)
(0.82432468 -0.14717717 6.2187705e-20)
(0.91168524 -0.21132795 0)
(1.0076376 -0.18511444 0)
(1.0831847 -0.085243369 0)
(1.1088222 0.072677405 1.2791237e-20)
(1.0745494 0.19094963 -7.4096433e-20)
(1.0123656 0.20436295 -3.6581777e-20)
(0.94801549 0.14681906 -5.2357695e-21)
(0.90756578 0.058850984 -3.9144004e-22)
(0.92361209 -0.0039519109 6.7594443e-21)
(0.95851715 -0.034335801 -4.7648209e-21)
(0.99078106 -0.045493286 1.2299589e-21)
(1.01767 -0.042782465 0)
(1.035134 -0.032076829 -2.7806028e-22)
(1.0430091 -0.018806751 4.4688705e-22)
(1.0433817 -0.0073934637 -1.034827e-22)
(1.0396818 -5.6292112e-05 9.8132008e-23)
(1.0350257 0.0032748506 5.6062863e-22)
(1.0311995 0.003895007 5.7270461e-22)
(1.0287143 0.0032104115 1.1366925e-22)
(1.0273841 0.0022240795 -2.5085082e-22)
(1.0267765 0.0014383344 3.0591413e-22)
(1.0264584 0.00096408988 -3.500251e-23)
(1.0261795 0.00076864263 -6.4245978e-24)
(1.0258178 0.00074179994 -5.5538672e-24)
(1.0253359 0.00078756865 3.8320496e-22)
(1.024772 0.00078484672 2.8753926e-22)
(1.0241807 0.00073038225 5.9465079e-23)
(1.0236652 0.00048393047 -2.8616035e-21)
(1.0232706 0.00025399885 1.128286e-21)
(0.75293902 0.15854296 6.610484e-21)
(0.7532409 0.17158976 -1.1848923e-21)
(0.75911271 0.032099971 1.6603274e-19)
(0.80713082 -0.15544363 1.4276326e-19)
(0.89455146 -0.22483741 -1.7475636e-20)
(0.98837006 -0.19913863 -1.1104706e-20)
(1.0636472 -0.093365149 -1.6075909e-19)
(1.0906265 0.078635607 8.5064487e-20)
(1.056522 0.2091623 9.3322502e-23)
(0.99924856 0.22742996 9.9903646e-20)
(0.94196656 0.17092828 -2.1000712e-20)
(0.89325492 0.070817427 6.8068548e-22)
(0.90197616 -0.0086355888 -1.1816198e-22)
(0.94347323 -0.045076033 -1.0268176e-21)
(0.98241228 -0.058573307 -7.689433e-22)
(1.0150569 -0.056180362 -1.3152977e-21)
(1.0379057 -0.043199978 -3.3574479e-22)
(1.0489209 -0.026203962 9.0352689e-22)
(1.050076 -0.010753142 1.6903602e-22)
(1.0453172 -0.00031977823 1.3103366e-22)
(1.0388358 0.0046640153 5.1616744e-22)
(1.0333108 0.0057141352 5.1327593e-22)
(1.0296469 0.0047561256 -3.5229097e-22)
(1.0276809 0.0032246303 8.5793978e-22)
(1.0268542 0.0019229068 -5.6718639e-22)
(1.0265832 0.0010915362 -2.5287479e-22)
(1.026451 0.0006821644 -2.1466437e-22)
(1.0262475 0.00058307603 -4.8385022e-23)
(1.0258902 0.00064949228 3.1091778e-23)
(1.0253736 0.00076366179 -5.7525978e-23)
(1.0247646 0.00079906932 2.436781e-22)
(1.0241279 0.00076184764 1.2022437e-23)
(1.023581 0.00051370993 1.1843289e-21)
(1.023164 0.00026631361 -2.1530226e-21)
(0.7358916 0.15949758 -6.524661e-21)
(0.7387741 0.1744426 1.0966401e-21)
(0.74413901 0.03303614 -2.2941718e-19)
(0.78920571 -0.1626238 -8.0807343e-20)
(0.87515772 -0.23739832 7.1363344e-20)
(0.96821781 -0.21072172 8.9516856e-20)
(1.0417543 -0.10085 2.0373096e-20)
(1.0693981 0.084346788 0)
(1.03534 0.22667569 6.1133826e-20)
(0.98155644 0.24859268 1.2563769e-19)
(0.93031743 0.1935778 -9.7386991e-21)
(0.88018417 0.085428832 1.9451317e-21)
(0.88035635 -0.012786629 0)
(0.92647831 -0.057707713 -1.5402281e-21)
(0.97303304 -0.073494568 -8.6103924e-22)
(1.0119544 -0.071893011 2.5958152e-21)
(1.0410426 -0.05678893 4.9537721e-21)
(1.056206 -0.035601757 0)
(1.0587276 -0.015177401 -1.5763971e-21)
(1.0528396 -0.00063620191 -4.0408997e-22)
(1.0440115 0.0066734133 1.4756199e-21)
(1.0361703 0.0084000849 9.3088591e-22)
(1.0308352 0.0071152976 0)
(1.0279241 0.0048575386 -3.4003709e-22)
(1.0267237 0.0027990636 6.8504587e-22)
(1.0264584 0.001403958 -5.1755001e-23)
(1.0265042 0.00064111661 -2.9814528e-22)
(1.0265269 0.00036494574 2.8659803e-22)
(1.0263689 0.00040309971 1.0822343e-23)
(1.0259907 0.00057709558 2.1142045e-22)
(1.0254238 0.00075980876 -8.5975205e-22)
(1.0247597 0.00083138419 -5.9466078e-22)
(1.0240743 0.00080533558 0)
(1.0234942 0.00055064555 -4.6416191e-23)
(1.0230541 0.00028037372 -6.5591135e-22)
(0.72194875 0.1600767 -6.3097549e-21)
(0.72637006 0.17662384 2.9251273e-20)
(0.73126909 0.033802598 -2.6019919e-19)
(0.77231539 -0.16955788 -3.516869e-20)
(0.85430613 -0.24949336 1.3055409e-20)
(0.94536932 -0.22371378 3.1053628e-20)
(1.0181269 -0.10592477 1.2760673e-19)
(1.0460152 0.090203693 -2.4195903e-21)
(1.0124961 0.24319393 0)
(0.96092678 0.26826595 -4.8677884e-20)
(0.91394137 0.21446553 3.0292887e-20)
(0.8670189 0.10113224 -2.2070499e-21)
(0.85981655 -0.015552604 3.7879445e-21)
(0.90786126 -0.071897912 -3.087301e-21)
(0.96252728 -0.090380818 -5.0408632e-21)
(1.0085495 -0.089756546 -7.8215228e-22)
(1.0442202 -0.0731113 1.8975935e-20)
(1.0649978 -0.047334531 9.2975827e-21)
(1.069661 -0.020960445 -2.5368324e-21)
(1.0626993 -0.0010643608 4.1013197e-21)
(1.0509383 0.0094698181 -1.7321871e-21)
(1.0400012 0.012225394 -1.0358216e-21)
(1.0323633 0.010573607 0)
(1.0280945 0.0073561209 -5.4927932e-23)
(1.0263102 0.0042662313 1.8234942e-22)
(1.0259738 0.0020262865 5.3817916e-22)
(1.0262402 0.00072599762 -8.5485324e-23)
(1.0265559 0.0001319326 -3.3797533e-24)
(1.0266895 4.712042e-05 2.4706179e-22)
(1.0265383 0.00024856809 0)
(1.0261132 0.00053418828 -1.25503e-22)
(1.0254813 0.00078128166 -9.2992307e-22)
(1.0247556 0.00088359193 2.0125813e-21)
(1.0240182 0.00086129357 -7.369353e-22)
(1.0234037 0.00059461901 8.361493e-23)
(1.0229402 0.00029609907 2.358469e-21)
(0.71127531 0.16027045 6.7567972e-21)
(0.71653181 0.17817145 1.7869466e-22)
(0.72083722 0.034304833 9.6448956e-20)
(0.75707465 -0.17625679 1.5306296e-21)
(0.83336787 -0.26082659 -1.0709753e-19)
(0.92039267 -0.23765544 -7.1429604e-20)
(0.99344589 -0.11520775 -2.7978908e-21)
(1.0216798 0.096790002 1.1779724e-19)
(0.98893075 0.25918182 -5.6870422e-21)
(0.93899622 0.28641514 4.6507597e-20)
(0.89503143 0.23346456 1.9860789e-21)
(0.85255872 0.11640084 -1.0162934e-20)
(0.84066976 -0.016833922 -1.5251078e-21)
(0.88831778 -0.087040542 -3.3266227e-21)
(0.95080198 -0.10915292 1.7821836e-20)
(1.0045722 -0.10974431 6.024244e-21)
(1.0475837 -0.092351408 -1.1780838e-20)
(1.0753475 -0.061823553 -1.0969432e-20)
(1.0832167 -0.028468399 9.8384618e-21)
(1.0753962 -0.0017073739 1.7963011e-21)
(1.0600592 0.013235923 -1.6753121e-21)
(1.0450665 0.017525198 6.1723592e-22)
(1.0343168 0.015465799 1.0115412e-21)
(1.0281681 0.01100883 0)
(1.0255215 0.0065365675 -7.2442333e-22)
(1.0250123 0.0031257424 9.5795747e-22)
(1.0255145 0.0010100309 -7.7556997e-22)
(1.0262219 -5.4277845e-05 1.2033364e-21)
(1.0267427 -0.00038428976 6.779643e-24)
(1.026932 -0.0002351807 -3.076569e-22)
(1.0267472 0.00013579638 -1.3588779e-22)
(1.0262514 0.00052767242 -4.6205904e-22)
(1.0255421 0.00083116535 -1.0911075e-23)
(1.0247491 0.00095616821 2.0923415e-21)
(1.0239577 0.0009297561 -8.1359722e-23)
(1.0233083 0.00064529405 -7.1993865e-23)
(1.0228215 0.00031334886 8.6436165e-22)
(0.70401984 0.1600956 -2.8805907e-22)
(0.7098811 0.17917585 -3.1099478e-20)
(0.71305885 0.03450536 1.5261179e-19)
(0.74388726 -0.18249429 3.9470687e-20)
(0.8130902 -0.2714122 -2.9127016e-21)
(0.89466216 -0.25064746 6.6212308e-21)
(0.96587644 -0.12907602 4.3803434e-20)
(0.99807662 0.097589811 -4.5351697e-20)
(0.96570667 0.27376653 0)
(0.91678891 0.30292522 -9.5954577e-21)
(0.87513539 0.25061809 0)
(0.8370138 0.13056813 0)
(0.82283621 -0.017040261 -1.0777069e-20)
(0.86867402 -0.10247808 1.3288212e-21)
(0.93793925 -0.12956349 4.3747093e-21)
(0.99970819 -0.13178058 1.1663803e-20)
(1.0510513 -0.11422583 -1.895332e-20)
(1.0869742 -0.079703352 -2.1913663e-20)
(1.0998746 -0.03818098 -1.3460226e-20)
(1.091534 -0.002735193 -3.4097726e-21)
(1.0718868 0.018176187 4.1460682e-21)
(1.0516609 0.024690485 9.0755764e-22)
(1.036781 0.0221891 -5.6015307e-22)
(1.0281032 0.016149125 -2.770477e-21)
(1.0242417 0.009860221 -3.9284862e-22)
(1.0234327 0.004876708 3.5540275e-22)
(1.0241675 0.0016055801 2.6844514e-22)
(1.0253755 -0.00016120901 -8.3841703e-22)
(1.0264168 -0.00086889576 -5.3297478e-23)
(1.0270598 -0.00086210741 -1.2322203e-21)
(1.0272405 -0.00046044974 -2.1659163e-22)
(1.0269852 7.4654746e-05 -1.2505664e-22)
(1.0263987 0.00056192871 -2.5280836e-23)
(1.0256025 0.00091146529 1.2189863e-21)
(1.0247378 0.0010489194 -4.1784993e-21)
(1.0238914 0.0010102043 -8.4263644e-22)
(1.0232074 0.00070212834 -8.2047769e-22)
(1.0226979 0.00033194212 0)
(0.70051473 0.15956191 -1.2297778e-20)
(0.70679096 0.1796621 -2.8528355e-22)
(0.70790798 0.034410457 5.0930675e-20)
(0.73322244 -0.18811208 4.0345185e-20)
(0.79405764 -0.28103734 7.9282241e-20)
(0.86863675 -0.26236725 2.0126423e-20)
(0.93645559 -0.14131292 -8.5489503e-21)
(0.97235558 0.08942771 -2.2557648e-19)
(0.94340006 0.28485709 7.9030446e-21)
(0.89516477 0.31778051 -1.2116205e-19)
(0.85574995 0.26540809 4.1005659e-21)
(0.82097955 0.14337281 0)
(0.80631007 -0.01647169 0)
(0.84955985 -0.1177722 1.2378436e-20)
(0.92418251 -0.15126397 -2.7839567e-20)
(0.99394837 -0.15562476 -2.2183062e-20)
(1.0540364 -0.13876638 1.2026537e-20)
(1.099442 -0.10094541 1.8410123e-20)
(1.1197503 -0.050568753 -2.2939248e-20)
(1.1118547 -0.0044635216 7.8670505e-22)
(1.0870735 0.02446887 -1.8453757e-22)
(1.0601183 0.034170344 -1.9581729e-23)