/*--------------------------------*- C++ -*----------------------------------*\
  =========                 |
  \\      /  F ield         | OpenFOAM: The Open Source CFD Toolbox
   \\    /   O peration     | Website:  https://openfoam.org
    \\  /    A nd           | Version:  8
     \\/     M anipulation  |
\*---------------------------------------------------------------------------*/
FoamFile
{
    version     2.0;
    format      ascii;
    class       volVectorField;
    location    "300.966377299864348";
    object      UMean;
}
// * * * * * * * * * * * * * * * * * * * * * * * * * * * * * * * * * * * * * //

dimensions      [0 1 -1 0 0 0 0];

internalField   nonuniform List<vector> 
9200
(
(1.0272159 5.9829584e-05 -3.2562684e-24)
(1.0273862 0.00023771756 2.5922189e-22)
(1.0269918 4.9749284e-05 0)
(1.027719 0.00041100917 -1.4744298e-22)
(1.0271231 0.00021464116 1.9005649e-22)
(1.026906 3.8681719e-05 0)
(1.0281694 0.00060378647 -1.3727873e-23)
(1.0274101 0.00037398082 -2.615382e-23)
(1.0270258 0.00017951553 0)
(1.0268227 1.9789232e-05 0)
(1.0287192 0.00084125278 3.6454236e-22)
(1.0277871 0.00054596029 3.268798e-22)
(1.027295 0.00031906882 1.127957e-22)
(1.0269239 0.00011560985 5.3468866e-24)
(1.0267704 6.0694879e-07 4.1510397e-25)
(1.0293356 0.0011040705 3.512826e-22)
(1.0282457 0.00076470638 3.4412366e-23)
(1.0276459 0.00046577758 4.2042881e-22)
(1.0271665 0.00021865479 2.0347409e-22)
(1.0268601 4.6908587e-05 3.7151327e-23)
(1.0267785 -2.2004742e-05 -1.1288171e-22)
(1.0300034 0.0014138449 5.4053133e-22)
(1.0287565 0.0010026387 3.0101473e-22)
(1.0280702 0.00066264392 -2.4068558e-22)
(1.0274785 0.00032034072 -2.9447297e-23)
(1.0270848 0.00011064982 8.7137896e-23)
(1.0268579 -3.7364703e-05 9.9519594e-23)
(1.0268046 -4.4607007e-05 3.0473387e-23)
(1.0306983 0.0017586719 5.0851465e-22)
(1.0293069 0.001287833 3.7263758e-22)
(1.0285337 0.00087380924 3.7715878e-22)
(1.0278553 0.00047591707 1.0655193e-22)
(1.027371 0.00016425155 -3.5738732e-22)
(1.0270665 -2.196719e-05 -1.5657586e-22)
(1.0268767 -0.00012442573 2.6501431e-23)
(1.0268904 -6.8166382e-05 -2.4690056e-23)
(1.0313976 0.0021499222 -8.5049687e-22)
(1.0298718 0.0016068641 2.1834025e-22)
(1.0290163 0.0011264668 1.0913449e-22)
(1.0282656 0.00064325831 1.2602501e-22)
(1.027715 0.00027466014 2.4131504e-22)
(1.0273292 -2.7238075e-05 -3.7946023e-22)
(1.0270734 -0.00015891833 -3.1378162e-22)
(1.0269589 -0.00021822761 8.8515957e-23)
(1.0269985 -9.0671652e-05 1.615977e-22)
(1.0320855 0.0025886601 8.4045091e-22)
(1.0304154 0.001966292 1.6599123e-22)
(1.0295012 0.0014085606 -4.9186429e-23)
(1.0286971 0.00085282961 -3.8885806e-22)
(1.0280875 0.00039057616 -9.0983692e-23)
(1.0276425 2.6714343e-05 4.0739505e-22)
(1.0273186 -0.00022464969 1.1207214e-22)
(1.0271481 -0.00030662504 5.1810965e-23)
(1.0270653 -0.00031074641 5.0811992e-23)
(1.0271544 -0.00011235728 8.5535527e-24)
(1.0327459 0.0030779284 -3.7978565e-22)
(1.0308917 0.0023557966 3.987719e-22)
(1.0299619 0.0017291591 1.1459585e-22)
(1.0291311 0.0010851506 -3.3263503e-22)
(1.0284737 0.00054645337 -2.3547794e-22)
(1.0279787 8.1429472e-05 -1.0151202e-22)
(1.0276106 -0.00022768022 1.355848e-22)
(1.0273825 -0.00043800619 -1.3773618e-22)
(1.0272502 -0.00045235376 1.1778175e-22)
(1.0272233 -0.00040340634 -1.6715044e-22)
(1.0273313 -0.0001320023 8.6176317e-23)
(1.0333756 0.0036100099 -6.8561202e-23)
(1.0313226 0.0027884189 -7.8906384e-22)
(1.0303839 0.0020844753 -4.5257844e-22)
(1.0295423 0.0013462526 0)
(1.0288522 0.00072279072 3.203162e-23)
(1.0283257 0.00017643687 -4.7271568e-22)
(1.0279213 -0.00023483312 7.9554677e-24)
(1.0276586 -0.00050448105 7.6806216e-23)
(1.0274782 -0.00064876696 -4.29879e-22)
(1.0274087 -0.00059855302 1.7428366e-22)
(1.0274045 -0.00049088328 1.6476966e-22)
(1.0275428 -0.00014946909 -2.8624905e-23)
(1.0339465 0.0041897307 -2.6784837e-24)
(1.0317146 0.0032580067 2.6287379e-22)
(1.0307749 0.0024647931 0)
(1.0299026 0.0016252302 0)
(1.0291999 0.00092864007 7.8072359e-23)
(1.0286657 0.0002898411 -6.9882271e-22)
(1.0282371 -0.00020322412 4.3150878e-22)
(1.0279498 -0.00057948631 3.8526229e-23)
(1.0277444 -0.00077807033 3.2507923e-23)
(1.0276374 -0.00086136211 4.992033e-24)
(1.0275938 -0.00073676837 -4.4852182e-22)
(1.0276236 -0.00057330877 6.6695985e-22)
(1.0277698 -0.0001638992 -1.0221773e-21)
(1.0344172 0.0048094982 2.7351048e-22)
(1.032045 0.0037467927 -2.9640374e-23)
(1.0311194 0.0028615145 1.5792479e-22)
(1.0302105 0.0019300054 -2.0923975e-22)
(1.029495 0.0011571491 2.103138e-22)
(1.0289749 0.00042957883 -2.5961465e-22)
(1.0285426 -0.0001542966 6.2418293e-23)
(1.0282422 -0.00061647611 3.431814e-23)
(1.0280222 -0.00092101892 3.0653103e-22)
(1.0279012 -0.001055956 2.9150915e-22)
(1.0278279 -0.0010636102 -8.7434743e-23)
(1.0278218 -0.00086736716 -2.2510883e-22)
(1.0278606 -0.00064699828 -1.8529969e-22)
(1.0280178 -0.00017511053 3.221158e-22)
(1.0347481 0.0054400793 -1.4673415e-21)
(1.0322785 0.0042817766 -1.0681361e-21)
(1.0313918 0.0032733788 -2.6670482e-22)
(1.0304716 0.002251667 6.8608316e-23)
(1.029749 0.0014108199 -6.2372915e-23)
(1.02923 0.00058737268 3.7228482e-22)
(1.0288137 -8.0010829e-05 7.3105565e-23)
(1.0285219 -0.00063737033 -7.152632e-23)
(1.0282975 -0.0010270111 -2.2539371e-22)
(1.0281738 -0.0012700611 -6.6615456e-23)
(1.028095 -0.0013220529 5.3845072e-24)
(1.0280685 -0.0012565479 -2.0286112e-22)
(1.0280713 -0.00098469781 5.51505e-22)
(1.028122 -0.00071133908 -3.3799699e-22)
(1.0282734 -0.00018264881 2.9954645e-22)
(1.0348493 0.0061003801 4.6514508e-23)
(1.0323688 0.0048052847 1.7201649e-22)
(1.031567 0.0037175563 -3.9703177e-22)
(1.030666 0.0025823977 2.7387274e-22)
(1.0299594 0.0016741582 -2.7034457e-22)
(1.0294433 0.00076613959 -5.3841875e-24)
(1.0290302 1.5059175e-05 -6.7678898e-22)
(1.0287638 -0.0006337562 7.9106582e-23)
(1.0285562 -0.0011188318 3.4488662e-23)
(1.0284396 -0.0014490147 -6.5136832e-22)
(1.0283686 -0.0016066185 5.9503007e-22)
(1.0283471 -0.0015785632 -6.5527487e-22)
(1.0283359 -0.0014319586 -2.07701e-22)
(1.0283499 -0.0010877669 -6.8963718e-24)
(1.0283934 -0.00076402447 7.2273548e-23)
(1.0285371 -0.00018631883 -3.572784e-22)
(1.0344839 0.0067667943 0)
(1.0322652 0.0053367873 6.172526e-22)
(1.0316265 0.0041447581 4.5164122e-22)
(1.0307668 0.0029298899 0)
(1.0301087 0.001946661 0)
(1.029613 0.00095350449 0)
(1.0292095 0.0001302164 1.3869518e-22)
(1.0289512 -0.00060724211 7.0577333e-23)
(1.0287723 -0.001185096 1.0520911e-21)
(1.0286845 -0.0016162165 -8.11235e-23)
(1.028631 -0.0018592132 2.3173492e-22)
(1.0286309 -0.0019344864 -1.2482874e-22)
(1.0286324 -0.0018146093 1.0573188e-22)
(1.0286395 -0.001588747 2.3653801e-22)
(1.0286423 -0.0011728606 -1.3402181e-23)
(1.0286758 -0.00080433734 1.9140646e-22)
(1.0287997 -0.00018593199 0)
(1.0334364 0.0073827298 -1.7406938e-22)
(1.0318067 0.0059014517 2.9294561e-23)
(1.031489 0.0045509323 1.2790753e-21)
(1.0307573 0.0032808685 9.9456702e-22)
(1.0301761 0.0022200328 7.6585358e-22)
(1.0297269 0.0011479421 0)
(1.0293475 0.00025613541 9.8798843e-22)
(1.029101 -0.00056008866 -4.3156412e-22)
(1.0289337 -0.0012266508 -1.0046007e-21)
(1.0288813 -0.0017573391 1.3680196e-21)
(1.0288677 -0.0021030565 6.1033308e-23)
(1.028899 -0.0022631215 2.845456e-22)
(1.0289336 -0.0022400066 -7.3163361e-22)
(1.0289625 -0.0020291664 7.2680882e-22)
(1.0289624 -0.0017213294 -4.6302993e-23)
(1.0289503 -0.0012387734 1.4753763e-21)
(1.0289593 -0.00083102372 5.1611824e-22)
(1.029059 -0.00018142177 5.1340859e-22)
(1.0315088 0.007934323 -1.1184482e-22)
(1.030773 0.0064143336 5.7759723e-23)
(1.0310212 0.0049763119 1.4661304e-22)
(1.0305631 0.0035952761 6.4675729e-22)
(1.0301461 0.002507859 -1.1102451e-22)
(1.0297673 0.0013381081 -3.3817064e-22)
(1.0294343 0.00039145396 -1.9333678e-21)
(1.0292095 -0.00049779423 -2.097506e-21)
(1.029056 -0.0012457636 -7.7544811e-22)
(1.0290211 -0.0018729653 -1.6614072e-22)
(1.0290503 -0.0023218293 -3.2272359e-22)
(1.0291364 -0.0025877222 3.9324856e-22)
(1.0292153 -0.0026445893 -7.111178e-22)
(1.0292911 -0.0025223183 1.2092884e-22)
(1.0293187 -0.0022147812 1.2090801e-22)
(1.0293076 -0.001827868 -2.5902384e-22)
(1.0292629 -0.00128337 5.4003791e-22)
(1.0292419 -0.00084360565 -4.0963798e-23)
(1.0293088 -0.000172762 5.0311972e-22)
(1.0280858 0.0084092366 -1.4259635e-21)
(1.0290298 0.0068819904 -6.9633373e-22)
(1.0300534 0.0053535497 3.3727162e-22)
(1.0300927 0.0039225141 -3.7960642e-22)
(1.0299677 0.0027389168 -5.5108323e-24)
(1.0297133 0.0015499855 -1.608293e-22)
(1.0294589 0.00052563274 2.2186648e-22)
(1.0292699 -0.00042112899 1.0068813e-22)
(1.029135 -0.0012441547 -3.3918313e-22)
(1.0291167 -0.0019636481 -1.7220936e-21)
(1.0291726 -0.0025153827 2.3678081e-22)
(1.0293135 -0.0028899695 2.3690351e-22)
(1.0294614 -0.0030515035 -2.1806028e-23)
(1.0295972 -0.0030027464 -4.5419617e-24)
(1.0296829 -0.0027718217 1.8150005e-22)
(1.0297055 -0.0023689374 -1.0030393e-21)
(1.0296625 -0.0019050555 4.0124345e-22)
(1.0295782 -0.0013057425 -9.0195419e-22)
(1.0295169 -0.00084163828 -2.2009334e-22)
(1.0295459 -0.0001600009 -5.3238978e-22)
(1.0220285 0.0086047586 1.204159e-22)
(1.0263777 0.0072395713 -1.8145826e-21)
(1.0284491 0.0056777764 5.346818e-22)
(1.0291389 0.0042148816 -6.9844044e-23)
(1.0295466 0.002956494 -3.6000477e-22)
(1.0295415 0.001713583 -3.8604752e-22)
(1.0294 0.00067587627 1.5378792e-21)
(1.029276 -0.00033780038 3.3109726e-21)
(1.0291665 -0.0012212536 4.1010787e-22)
(1.0291638 -0.0020276931 0)
(1.0292435 -0.0026822652 -1.2992957e-22)
(1.0294245 -0.0031691483 1.0528652e-21)
(1.0296413 -0.0034404668 9.0500848e-22)
(1.0298634 -0.0034938141 -1.1817118e-21)
(1.0300228 -0.0033258206 1.852396e-22)
(1.0301153 -0.0029854274 -8.1178316e-22)
(1.0301087 -0.0024868601 1.6124485e-22)
(1.0300261 -0.0019513949 4.3018362e-22)
(1.0298886 -0.0013050226 -6.2431647e-22)
(1.0297808 -0.0008250462 -4.0309576e-23)
(1.0297664 -0.00014327006 -4.9914945e-22)
(1.0133265 0.008494852 3.700407e-21)
(1.0216188 0.0074709236 -2.7748972e-21)
(1.0260131 0.0059490394 -2.8105956e-21)
(1.0276052 0.0044529559 1.5713667e-21)
(1.0286564 0.0031589945 7.0087679e-23)
(1.0291444 0.0018447277 -1.3186069e-22)
(1.0292494 0.00080032559 0)
(1.029208 -0.00024446759 -4.7454361e-22)
(1.0291479 -0.001181953 -1.1275427e-21)
(1.0291599 -0.0020631262 -1.3613541e-21)
(1.0292581 -0.0028178698 3.7606393e-22)
(1.0294752 -0.0034215952 5.6450581e-22)
(1.029749 -0.0038111022 -1.9364669e-22)
(1.0300578 -0.0039739026 -1.5086428e-22)
(1.0303194 -0.0039006007 6.7812878e-22)
(1.0305006 -0.0036099148 -6.3114546e-22)
(1.0305724 -0.0031567915 1.0850171e-22)
(1.0305281 -0.0025662703 -7.4078013e-22)
(1.030389 -0.0019653602 -3.8956742e-23)
(1.0301908 -0.0012809877 -1.1954835e-23)
(1.0300293 -0.00079404197 -3.1402292e-22)
(1.0299673 -0.00012275332 0)
(1.002232 0.0082815552 1.6163968e-21)
(1.0137429 0.0074042679 2.2406637e-21)
(1.0219119 0.0061109807 -9.0011117e-23)
(1.0253852 0.0046475146 3.1597216e-21)
(1.0271758 0.0032895483 5.2709531e-22)
(1.0283149 0.0019877363 -7.5630512e-23)
(1.0288977 0.00086947243 4.1955502e-22)
(1.0290688 -0.00014267028 1.1339704e-21)
(1.0290642 -0.0011327839 2.389384e-22)
(1.0291044 -0.0020718937 2.0041541e-22)
(1.0292148 -0.0029188072 -6.0186749e-23)
(1.0294596 -0.0036405625 -1.411659e-21)
(1.0297871 -0.0041569301 4.7851874e-23)
(1.0301732 -0.0044427487 1.2564593e-21)
(1.0305399 -0.0044734546 -3.5484153e-22)
(1.0308406 -0.0042667826 -7.4671603e-22)
(1.0310129 -0.0038468799 -7.5864687e-23)
(1.031055 -0.0032825548 1.3805077e-21)
(1.0309526 -0.0026047778 9.1398105e-23)
(1.0307481 -0.0019463661 -4.3226145e-22)
(1.0304793 -0.0012338091 0)
(1.0302591 -0.00074897225 6.8841743e-22)
(1.0301459 -9.8676328e-05 1.5253554e-23)
(0.98916395 0.0079145998 -7.5717625e-21)
(1.0036168 0.0071904847 8.7022908e-21)
(1.0148239 0.0059809753 -7.5638706e-21)
(1.0218515 0.0048073143 -2.5704179e-21)
(1.0250387 0.0033868666 3.430297e-21)
(1.0269129 0.0020637055 0)
(1.0281609 0.00094891577 9.8609905e-23)
(1.0287617 -0.00010446335 1.8490743e-23)
(1.0289116 -0.0010487765 9.9028524e-22)
(1.0289871 -0.0020623277 2.1564999e-21)
(1.0291142 -0.002984585 -4.7638268e-22)
(1.0293764 -0.0038213658 -9.0039568e-22)
(1.0297477 -0.0044697496 1.0747454e-21)
(1.030209 -0.0048907563 -5.9157155e-22)
(1.0306753 -0.0050440744 1.2099905e-21)
(1.0311013 -0.0049331796 1.1381435e-21)
(1.0314078 -0.0045820862 -1.0803853e-21)
(1.0315618 -0.0040321356 5.6696721e-22)
(1.0315503 -0.003359051 -1.9297125e-21)
(1.0313793 -0.0026011527 6.3955812e-22)
(1.0310964 -0.0018943608 9.7976859e-22)
(1.0307505 -0.0011639341 -7.6832103e-22)
(1.0304672 -0.00069058111 4.0745672e-22)
(1.0303002 -7.1275171e-05 1.3655515e-23)
(0.97471109 0.0074479845 -1.3954966e-21)
(0.99164912 0.0069263391 8.6908043e-21)
(1.0049479 0.0056297571 1.0366273e-21)
(1.0154566 0.0047305241 1.9067084e-20)
(1.0218574 0.0034599484 -3.6776557e-21)
(1.024891 0.0020976975 3.8553664e-21)
(1.0268336 0.00097097592 9.3033818e-23)
(1.0281112 -6.7092703e-05 9.492526e-23)
(1.0286362 -0.0010077598 -7.4722739e-23)
(1.0287956 -0.0020063454 5.2185285e-22)
(1.0289498 -0.0030216514 3.4989956e-23)
(1.0292267 -0.0039613438 1.9105097e-21)
(1.0296297 -0.004743822 -3.1466328e-22)
(1.0301561 -0.0053093397 -1.5048204e-22)
(1.0307212 -0.0056008057 -1.7091283e-23)
(1.0312711 -0.0056084718 2.5289415e-22)
(1.0317222 -0.0053405108 -2.1494946e-22)
(1.0320247 -0.0048406711 9.3986913e-22)
(1.0321327 -0.0041606872 0)
(1.0320558 -0.0033840236 1.4591988e-22)
(1.0317996 -0.0025549122 4.5173944e-23)
(1.0314302 -0.0018098093 -8.5009094e-23)
(1.0310009 -0.001072379 -2.7055907e-24)
(1.0306517 -0.0006197082 -5.9468112e-22)
(1.0304288 -4.0964688e-05 -2.0860146e-22)
(0.95945698 0.0069166333 5.5749507e-21)
(0.97806885 0.00653876 -5.7237372e-21)
(0.99309141 0.0052290858 -3.6567585e-21)
(1.0061893 0.0043859698 -2.8843943e-21)
(1.0162291 0.0033722891 -1.6699028e-20)
(1.0220225 0.0021219338 -7.0254196e-22)
(1.0249043 0.00094373992 9.2687363e-23)
(1.0268625 -5.7590073e-05 -1.0601399e-22)
(1.028058 -0.00098588138 5.7540809e-23)
(1.0285176 -0.0019567879 2.4944352e-22)
(1.0287049 -0.0030095446 6.1038546e-22)
(1.0290067 -0.0040633616 -2.4967975e-22)
(1.0294345 -0.0049746771 -1.0227234e-21)
(1.0300126 -0.0056912821 -5.132422e-25)
(1.0306681 -0.0061338317 -5.7982238e-22)
(1.0313421 -0.0062791933 -3.2794024e-23)
(1.0319409 -0.006120337 7.4424425e-22)
(1.0324076 -0.0056875194 -1.3858866e-21)
(1.0326748 -0.005035923 -2.1092458e-21)
(1.0327232 -0.0042289771 3.3999538e-24)
(1.0325609 -0.0033563281 2.0594041e-21)
(1.0322095 -0.0024662295 4.565996e-22)
(1.0317449 -0.0016938334 -8.47628e-22)
(1.0312277 -0.00096046126 6.5081328e-22)
(1.0308105 -0.00053731621 -3.8424139e-22)
(1.030531 -8.2965675e-06 2.1353027e-23)
(0.94390419 0.0063543184 -2.2415498e-22)
(0.96349925 0.0060923909 -7.1770767e-21)
(0.97962143 0.0047749173 1.6519369e-20)
(0.99477626 0.0039780082 -1.883658e-20)
(1.0075529 0.0029602193 1.7713194e-20)
(1.0171553 0.0020294654 -9.057975e-21)
(1.022261 0.00091116199 -3.9127044e-21)
(1.0250002 -0.00010135652 -2.5764368e-21)
(1.026884 -0.00095951015 1.4711428e-21)
(1.0279796 -0.0019376956 -1.276169e-22)
(1.0283911 -0.0029694706 -1.0500532e-22)
(1.0287007 -0.0041192985 -1.7331147e-21)
(1.0291602 -0.0051622815 1.7815219e-21)
(1.0297804 -0.0060306743 -1.0663578e-21)
(1.0305127 -0.0066350848 1.2388422e-22)
(1.0313043 -0.0069340868 4.2135178e-22)
(1.0320529 -0.0069067073 -1.0988086e-21)
(1.0326909 -0.0065699478 1.2494271e-21)
(1.0331393 -0.0059657754 -1.0539327e-21)
(1.0333566 -0.0051627754 2.0921084e-22)
(1.0333212 -0.0042347667 0)
(1.0330612 -0.0032754719 8.7405943e-22)
(1.0326026 -0.0023362581 9.4752812e-23)
(1.0320368 -0.0015480086 0)
(1.0314283 -0.00082961582 -7.8615217e-22)
(1.0309422 -0.00044455887 -5.6171739e-23)
(1.0306063 2.6648515e-05 9.0415543e-23)
(0.92841599 0.0057801491 -1.6857735e-21)
(0.94846859 0.0056155769 -6.2084646e-22)
(0.96510787 0.0042963489 1.5874904e-20)
(0.98166714 0.0034966487 -1.8487011e-21)
(0.99650016 0.0024638803 4.846478e-21)
(1.0091526 0.0016110601 1.3589476e-20)
(1.0180319 0.00082242001 5.0996168e-22)
(1.0225009 -0.00014782229 4.3939215e-21)
(1.0250507 -0.00098344861 -3.8674117e-22)
(1.0268641 -0.0018965028 -8.661383e-22)
(1.0278612 -0.0029551944 -5.6034912e-22)
(1.0283229 -0.0041197688 -7.027608e-22)
(1.0287941 -0.0053077738 -1.0818224e-21)
(1.0294589 -0.0063258077 1.3266572e-22)
(1.0302569 -0.0070975285 -1.2575501e-21)
(1.0311533 -0.0075650029 2.4179232e-22)
(1.0320472 -0.0076880316 -1.9415245e-21)
(1.0328609 -0.0074721528 2.9853551e-21)
(1.0335025 -0.0069463337 9.3083924e-22)
(1.0339163 -0.0061682945 -3.2957831e-22)
(1.0340558 -0.0052180416 1.3027974e-21)
(1.0339222 -0.0041765089 -7.5030581e-23)
(1.0335484 -0.0031420778 -7.7758847e-23)
(1.0329744 -0.0021661164 0)
(1.0323023 -0.0013738326 0)
(1.0316009 -0.00068151004 6.7125991e-23)
(1.0310457 -0.00034234565 -2.8537046e-22)
(1.0306544 6.3565286e-05 -6.8030441e-23)
(0.9132506 0.0052162212 0)
(0.93337719 0.0051259802 -4.5468917e-21)
(0.95010354 0.0038188318 -1.6569218e-20)
(0.96738537 0.0029856849 -1.1817479e-20)
(0.98369675 0.0019100737 -2.106743e-20)
(0.9985255 0.0010497043 -2.1905803e-21)
(1.0107627 0.00043282391 8.0731063e-21)
(1.0187781 -0.00020433766 1.0906113e-20)
(1.0226332 -0.0010033626 -6.8017623e-21)
(1.0250217 -0.0018917155 6.5156402e-22)
(1.0267906 -0.002915382 -4.9879344e-23)
(1.0277707 -0.0041311828 3.6839784e-24)
(1.0283395 -0.0053819754 -2.3229766e-21)
(1.0290392 -0.0065800701 2.1291715e-22)
(1.0299008 -0.0075173215 3.0612353e-22)
(1.0308902 -0.0081627751 -1.2738579e-21)
(1.0319188 -0.0084545198 3.5282813e-22)
(1.0329057 -0.0083819188 -1.1758196e-21)
(1.0337473 -0.0079615308 2.6973829e-21)
(1.0343746 -0.0072405039 -1.0499622e-21)
(1.0347225 -0.0062902789 1.1116001e-21)
(1.0347678 -0.005198592 7.3153285e-22)
(1.0345161 -0.004054643 -3.562886e-23)
(1.034018 -0.0029573967 -2.317266e-21)
(1.0333206 -0.0019579711 -6.1005126e-22)
(1.0325391 -0.0011733313 1.2454468e-22)
(1.0317444 -0.00051761367 5.3625527e-22)
(1.0311206 -0.0002317627 -9.6488807e-23)
(1.0306758 0.00010187124 -1.2211659e-22)
(0.89858081 0.0046575402 4.989376e-21)
(0.91850921 0.0046305915 0)
(0.93500845 0.0033613717 0)
(0.95250803 0.002474338 0)
(0.96958925 0.001325749 6.3965473e-21)
(0.98605694 0.00043209301 -1.8639806e-20)
(1.0006602 -0.00017280975 4.8920454e-22)
(1.012275 -0.00050915055 9.5088912e-23)
(1.0192842 -0.00099431273 -1.4941002e-20)
(1.0226005 -0.0018713624 9.0984968e-21)
(1.0249265 -0.0028978002 -1.667379e-21)
(1.0267418 -0.0041275291 1.2541341e-22)
(1.0277504 -0.005448654 5.3387285e-22)
(1.0285132 -0.0067636601 -2.4315114e-22)
(1.0294395 -0.0078960899 2.2202565e-21)
(1.0305163 -0.0087223492 4.4980492e-22)
(1.0316677 -0.009196059 -1.4217378e-21)
(1.0328189 -0.009287651 -1.0815601e-21)
(1.0338607 -0.008998191 9.4828507e-22)
(1.0347113 -0.0083638763 -3.3387993e-22)
(1.0352897 -0.0074459787 -1.3174068e-21)
(1.0355529 -0.0063268711 1.9981949e-23)
(1.0354803 -0.0051040818 1.8371337e-21)
(1.0350974 -0.0038697049 -1.1604993e-21)
(1.0344635 -0.0027238558 -5.8735178e-23)
(1.0336379 -0.0017144808 -3.5343405e-22)
(1.0327451 -0.00094925521 6.7881766e-22)
(1.0318579 -0.00033982758 2.5919394e-22)
(1.0311671 -0.00011402158 1.4745708e-22)
(1.0306709 0.00014136547 -1.9523651e-22)
(0.88329875 0.0041122429 -1.2846495e-22)
(0.90407828 0.0041475832 -5.2855483e-21)
(0.92010155 0.0029256555 0)
(0.93746052 0.001989148 0)
(0.95478076 0.00074805312 0)
(0.97215114 -0.00022805806 0)
(0.98855411 -0.00083731506 0)
(1.0027981 -0.0011074944 -6.4816362e-24)
(1.0135637 -0.001164766 8.3425034e-21)
(1.0194398 -0.0018005011 -1.5748726e-20)
(1.0224296 -0.002861433 6.0686938e-23)
(1.0248724 -0.0041345475 -1.40304e-21)
(1.0267659 -0.005513132 1.8153685e-22)
(1.0278801 -0.0069201201 9.5374929e-22)
(1.0288609 -0.0082157065 -1.5930556e-22)
(1.0300297 -0.0092429749 1.0932698e-21)
(1.0312956 -0.0099058437 -1.5432929e-21)
(1.0325999 -0.010178588 7.0520391e-22)
(1.0338352 -0.010044045 9.6856471e-22)
(1.0349118 -0.0095243295 5.9185277e-22)
(1.0357344 -0.0086703863 1.7483187e-22)
(1.0362426 -0.0075560529 8.3100432e-22)
(1.036393 -0.0062767572 1.3639144e-23)
(1.0361871 -0.0049338214 -7.359455e-22)
(1.035658 -0.0036240454 3.9226576e-22)
(1.034881 -0.0024440399 1.9706449e-21)
(1.0339234 -0.0014385513 4.7022414e-22)
(1.0329189 -0.00070415856 -3.0073807e-22)
(1.0319412 -0.00015011593 2.9678211e-23)
(1.0311856 9.7302147e-06 9.0987814e-23)
(1.0306406 0.00018181525 1.605345e-22)
(0.86707927 0.0034938657 -4.3007648e-21)
(0.88904559 0.0036898732 -1.094994e-21)
(0.9055796 0.0025165731 -1.6489175e-20)
(0.92253841 0.0015332081 -2.5155456e-20)
(0.93971655 0.00020741936 0)
(0.95740272 -0.00087939074 0)
(0.97488234 -0.0015557578 -8.424732e-23)
(0.99107873 -0.001776336 -1.9888645e-20)
(1.0047441 -0.0016641508 2.4121436e-20)
(1.014396 -0.001825927 -2.0793148e-20)
(1.0193324 -0.0027562574 -1.6715716e-22)
(1.0222428 -0.0041309992 5.0754225e-21)
(1.0249302 -0.0055812693 -4.7390467e-22)
(1.0269331 -0.007077774 -1.6262984e-23)
(1.0281823 -0.0084889742 -9.6758047e-22)
(1.0294193 -0.0097163594 8.0532671e-23)
(1.0308026 -0.010580267 2.7944405e-21)
(1.0322505 -0.011045855 -1.599206e-22)
(1.0336689 -0.011086011 -1.9990673e-21)
(1.0349671 -0.010707974 4.0813235e-21)
(1.0360397 -0.0099485669 -7.292883e-22)
(1.0368107 -0.0088724841 -1.1613077e-21)
(1.0372172 -0.0075679853 2.7929225e-21)
(1.037236 -0.0061377535 1.1695001e-21)
(1.0368778 -0.0046898537 -3.5899768e-22)
(1.0361926 -0.0033199185 1.2078096e-21)
(1.0352657 -0.0021215328 5.8742084e-22)
(1.0341748 -0.0011334167 1.4544029e-22)
(1.0330598 -0.00044086412 -2.8601283e-22)
(1.0319943 4.9441166e-05 -1.1710474e-22)
(1.0311768 0.00013814216 2.4501852e-22)
(1.0305858 0.0002229129 2.3675925e-23)
(0.85082429 0.002887685 1.262565e-21)
(0.87304352 0.0031759896 5.5639256e-21)
(0.89043507 0.0021825578 2.2975262e-20)
(0.90796056 0.0011055127 3.1266599e-20)
(0.92470265 -0.00029398684 0)
(0.94230669 -0.0014895551 0)
(0.96021093 -0.002267376 0)
(0.97767343 -0.0025031944 2.9121558e-21)
(0.99342885 -0.0022811443 -2.9666585e-20)
(1.006288 -0.0021638986 -2.2726219e-20)
(1.0147833 -0.0026592901 -1.7889081e-22)
(1.0190847 -0.0040431057 1.5249897e-21)
(1.0221765 -0.0056632123 -8.8758359e-21)
(1.0251836 -0.007237123 1.3194793e-21)
(1.0272598 -0.0087611296 1.7516868e-22)
(1.0287018 -0.010130001 0)
(1.0301825 -0.011219621 7.1979538e-22)
(1.0317723 -0.011883479 -6.8527155e-22)
(1.0333636 -0.012113741 6.3968065e-22)
(1.0348735 -0.011900798 2.9402427e-22)
(1.0361948 -0.011265778 -1.8729327e-21)
(1.0372386 -0.01026073 2.3466476e-22)
(1.0379231 -0.0089658642 -1.8282637e-21)
(1.0382058 -0.0074780809 -2.3209625e-21)
(1.0380694 -0.0059115127 8.302774e-22)
(1.0375461 -0.0043736507 1.9295199e-22)
(1.0366947 -0.0029611624 -1.3659241e-22)
(1.0356145 -0.0017599841 1.5116523e-23)
(1.0343902 -0.00080260049 -4.1133141e-22)
(1.0331673 -0.00016218978 -3.4846805e-22)
(1.0320177 0.00025689576 1.5989179e-22)
(1.031142 0.0002700409 -1.0120858e-21)
(1.0305079 0.00026426774 5.3795263e-22)
(0.83472576 0.0023033718 8.2426927e-22)
(0.85680611 0.0026814729 4.7191026e-22)
(0.87437207 0.0018208925 3.9807232e-20)
(0.89270836 0.00079773016 6.0314477e-20)
(0.90999065 -0.00076441937 -1.3046443e-20)
(0.92718099 -0.0020519426 -1.3498545e-21)
(0.94507708 -0.0029366319 -5.0643869e-20)
(0.96309854 -0.0032316325 2.4023475e-20)
(0.98031159 -0.0029618389 3.3734297e-21)
(0.99544751 -0.002695106 5.8564754e-20)
(1.0073756 -0.0028344044 -1.8707028e-20)
(1.014837 -0.0038918688 -1.9103529e-20)
(1.0188663 -0.0056590676 6.0700909e-23)
(1.0223726 -0.0074434153 3.4602532e-21)
(1.0256412 -0.0090349783 9.1045462e-22)
(1.0277948 -0.010539877 -2.5194432e-22)
(1.0294402 -0.011794272 2.4547186e-22)
(1.0311628 -0.012693535 1.438138e-21)
(1.0329219 -0.013119555 -2.8976629e-22)
(1.0346335 -0.013089638 -2.3346176e-22)
(1.0361946 -0.012606149 6.9588356e-22)
(1.0375121 -0.011705269 -3.2955903e-21)
(1.0384897 -0.010454308 -5.5479689e-23)
(1.039063 -0.0089449213 1.0031925e-21)
(1.039194 -0.0072870786 -3.1441212e-21)
(1.038886 -0.0055984416 -1.059566e-21)
(1.0381835 -0.0039893881 -9.2910202e-22)
(1.0371602 -0.0025515537 -3.6233173e-22)
(1.0359246 -0.0013633858 -4.8478e-22)
(1.0345687 -0.00044979868 -1.263462e-23)
(1.0332417 0.0001292178 -3.3197749e-23)
(1.0320123 0.00047025871 -4.314379e-23)
(1.0310822 0.00040425729 5.217388e-22)
(1.0304084 0.0003055548 -1.2131146e-21)
(0.81903535 0.0017529071 -1.1354798e-21)
(0.84050872 0.0022104601 -6.9352591e-22)
(0.85798436 0.0015090289 -4.4233681e-20)
(0.87655434 0.00046059926 -3.0349555e-20)
(0.89454924 -0.0010729671 4.9242623e-20)
(0.91230206 -0.0025810547 6.1253134e-20)
(0.92981651 -0.0035523171 6.9809853e-21)
(0.94792384 -0.0039204262 0)
(0.96585948 -0.0036606736 2.6483747e-20)
(0.98265743 -0.0033088488 8.1680017e-20)
(0.99713207 -0.0032636661 2.8427919e-21)
(1.0080769 -0.0039392911 9.5618797e-21)
(1.0147412 -0.0055443859 0)
(1.0188807 -0.0075719812 -7.7107204e-22)
(1.0228675 -0.009378595 -5.1559831e-21)
(1.0263276 -0.010949395 3.2290693e-22)
(1.0285482 -0.012355335 -1.0579467e-21)
(1.0304178 -0.013449366 0)
(1.0323438 -0.014102013 3.2493017e-22)
(1.0342495 -0.014265171 8.4050327e-22)
(1.0360394 -0.013954297 -2.8611436e-21)
(1.0376243 -0.01318816 6.3255838e-22)
(1.0388999 -0.012017766 0)
(1.0397837 -0.010522314 -2.9384677e-21)
(1.0402145 -0.0088088749 1.1605775e-21)
(1.0401731 -0.0069940053 -7.4002638e-23)
(1.0396751 -0.0052026612 -1.3284196e-21)
(1.0387845 -0.0035404032 1.0567284e-21)
(1.0375845 -0.002096022 5.2993812e-23)
(1.0361941 -0.0009360141 -1.0381593e-21)
(1.0347098 -7.8612878e-05 7.6745637e-22)
(1.0332833 0.00043049938 2.1120217e-22)
(1.0319791 0.00068776661 0)
(1.0309989 0.00053980257 -2.1334441e-23)
(1.0302888 0.00034649395 -4.3504591e-22)
(0.80412622 0.0012519603 -3.6130124e-22)
(0.82439505 0.0017792496 3.1934688e-21)
(0.84148617 0.0012506243 -4.0386836e-20)
(0.85993425 0.00019235843 -1.0662501e-20)
(0.878233 -0.0014053398 1.3215508e-20)
(0.89660789 -0.002913279 8.0682337e-21)
(0.91473694 -0.0041269456 5.2545564e-20)
(0.93251146 -0.0045528222 2.9466685e-22)
(0.95064975 -0.0043262887 0)
(0.9683612 -0.0039621693 -3.090307e-20)
(0.98471823 -0.0038004787 2.5315406e-20)
(0.99847911 -0.0042718641 -1.6288388e-21)
(1.0085154 -0.0055361234 9.7385767e-21)
(1.0147406 -0.007574497 -9.4415511e-21)
(1.0191962 -0.0096769843 -4.2415839e-21)
(1.0236921 -0.0114353 -2.5070401e-21)
(1.0272322 -0.012918363 1.567302e-21)
(1.0295479 -0.014174101 -3.7458118e-22)
(1.0316236 -0.015046234 2.3121489e-21)
(1.0337234 -0.015421531 -3.6912544e-21)
(1.0357333 -0.015298231 3.1978711e-21)
(1.0375741 -0.014693339 -2.4384261e-21)
(1.0391439 -0.013636861 0)
(1.0403482 -0.012194598 -7.8800202e-22)
(1.0411037 -0.010462069 2.7298877e-22)
(1.0413673 -0.0085554061 1.547937e-21)
(1.0411305 -0.0066023671 4.562501e-22)
(1.0404299 -0.0047268131 2.4814951e-22)
(1.0393427 -0.0030323284 7.4611922e-22)
(1.0379647 -0.0015990343 0)
(1.0364214 -0.00048245491 9.456487e-22)
(1.0348134 0.00030776284 8.6043366e-22)
(1.033293 0.00073895961 7.9768682e-22)
(1.0319196 0.0009076593 -5.2978744e-22)
(1.0308936 0.00067571433 1.7415667e-23)
(1.0301508 0.00038684983 1.6480489e-21)
(0.79055658 0.00081394363 4.9824997e-22)
(0.80885624 0.0014063529 -2.3028687e-22)
(0.82511883 0.0010490031 1.236181e-20)
(0.84308899 -3.7417058e-06 4.0198033e-22)
(0.86130827 -0.0016468589 -5.8981459e-20)
(0.88005151 -0.0032716572 -5.946382e-20)
(0.89874453 -0.0044774305 -2.361841e-22)
(0.91720508 -0.0051458178 3.9681512e-20)
(0.93507963 -0.0049382116 2.2734822e-22)
(0.95312829 -0.0045882633 2.9828022e-20)
(0.97062153 -0.0044055164 -2.712149e-23)
(0.98650181 -0.0047353559 -1.3326258e-20)
(0.99955169 -0.0058045942 -1.558877e-21)
(1.0089169 -0.0075915651 -9.9097497e-21)
(1.0149544 -0.0098475866 3.232595e-20)
(1.0199024 -0.011938157 9.768055e-22)
(1.0248261 -0.013551307 -2.7045797e-21)
(1.0283675 -0.01490403 -1.2506362e-22)
(1.030785 -0.01594521 -1.2663117e-21)
(1.0330532 -0.016553712 -7.1932745e-22)
(1.0352784 -0.016628357 1.6755346e-21)
(1.0373643 -0.016203105 -3.6188616e-21)
(1.0392178 -0.0152933 2.9412255e-21)
(1.0407429 -0.013941597 0)
(1.041839 -0.01223103 2.1806469e-21)
(1.0424385 -0.010269387 3.2892098e-21)
(1.0425071 -0.0081868418 -1.335548e-21)
(1.0420576 -0.0061141692 2.7166518e-21)
(1.0411418 -0.0041769573 6.7799385e-23)
(1.0398539 -0.0024700171 -8.4769921e-22)
(1.0382978 -0.0010661348 -9.0931149e-22)
(1.0366059 -7.0771888e-06 -2.8871052e-22)
(1.0348802 0.0007057425 -8.0442708e-23)
(1.033272 0.0010521107 9.9692589e-22)
(1.0318351 0.0011283906 -2.6443214e-22)
(1.0307681 0.00081113623 -6.7256941e-23)
(1.0299959 0.00042642809 6.6130349e-22)
(0.77911541 0.00044384928 -2.957635e-22)
(0.79453079 0.0011163313 -2.6476427e-21)
(0.80926608 0.00092172449 1.5842579e-20)
(0.82625445 -0.00012251333 8.4271873e-21)
(0.84406209 -0.0017971597 -4.2549589e-22)
(0.86272764 -0.0035142148 3.7396662e-22)
(0.88189495 -0.0048704929 3.1727736e-20)
(0.90087419 -0.0054938934 -1.4537637e-20)
(0.91953598 -0.005514835 0)
(0.93739847 -0.0051682801 -6.6341611e-21)
(0.95539038 -0.0049929675 0)
(0.97265509 -0.0052920671 0)
(0.98805995 -0.006232804 -1.3906626e-20)
(1.0005253 -0.0078484916 1.6435549e-21)
(1.0093957 -0.0099542864 7.0248845e-21)
(1.0155134 -0.012309457 9.0529663e-21)
(1.021033 -0.014274045 -8.5994839e-21)
(1.0262557 -0.015688034 -3.4018797e-21)
(1.0297197 -0.016847299 -2.4718411e-22)
(1.0322566 -0.017634 5.1882053e-22)
(1.0346763 -0.017941373 -2.8493464e-21)
(1.0369982 -0.017705978 1.4822713e-21)
(1.0391231 -0.016967407 5.6172305e-22)
(1.0409609 -0.015743627 -5.8064627e-22)
(1.0424036 -0.014095825 4.1714857e-24)
(1.0433603 -0.012121437 6.8991218e-22)
(1.0437719 -0.0099449473 -3.9514791e-22)
(1.0436234 -0.0077040071 -1.7021111e-21)
(1.0429438 -0.0055352782 -1.5612251e-22)
(1.0418053 -0.0035577311 -2.6019845e-21)
(1.0403137 -0.0018599432 -7.4240638e-22)
(1.0385824 -0.00050240179 -3.1233858e-22)
(1.0367475 0.00048564569 -1.1794663e-21)
(1.0349108 0.0011118337 5.8596198e-22)
(1.0332216 0.0013678571 -2.0644438e-21)
(1.0317274 0.0013485588 -3.7197024e-22)
(1.0306239 0.00094530113 -5.731903e-22)
(1.029826 0.00046505061 0)
(0.77072695 0.00014656256 -2.6574364e-22)
(0.78227822 0.00092024313 -2.1549631e-22)
(0.79451888 0.00088564104 4.1265676e-21)