/*--------------------------------*- C++ -*----------------------------------*\
  =========                 |
  \\      /  F ield         | OpenFOAM: The Open Source CFD Toolbox
   \\    /   O peration     | Website:  https://openfoam.org
    \\  /    A nd           | Version:  8
     \\/     M anipulation  |
\*---------------------------------------------------------------------------*/
FoamFile
{
    version     2.0;
    format      ascii;
    class       volSymmTensorField;
    location    "300.966377299864348";
    object      UPrime2Mean;
}
// * * * * * * * * * * * * * * * * * * * * * * * * * * * * * * * * * * * * * //

dimensions      [0 2 -2 0 0 0 0];

internalField   nonuniform List<symmTensor> 
9200
(
(0.00023273442 8.1012774e-06 -9.6627955e-27 5.3099817e-07 -5.1369599e-28 3.8889541e-48)
(0.00023626748 2.4860988e-05 1.1783828e-23 5.1333527e-06 2.1548798e-24 9.586507e-43)
(0.00018821826 6.7393269e-06 0 5.2829194e-07 0 0)
(0.00024130263 3.9848212e-05 -6.1857598e-24 1.3051025e-05 -1.793305e-24 2.6140343e-43)
(0.00019139042 2.0743596e-05 7.6756738e-24 5.1936976e-06 1.6985845e-24 5.9361144e-43)
(0.00017135585 6.1833724e-06 0 5.2622056e-07 0 0)
(0.00024849672 5.4576299e-05 -6.2260901e-25 2.4512197e-05 -2.4640339e-25 2.6348513e-45)
(0.00019613867 3.3218756e-05 2.7828309e-25 1.3144184e-05 1.0822112e-25 1.2184568e-45)
(0.00017443838 1.9077235e-05 0 5.2218385e-06 0 0)
(0.00014958323 5.3295803e-06 0 5.2230644e-07 0 0)
(0.00025712195 6.8176187e-05 1.251686e-23 3.8153248e-05 6.0972379e-24 1.0414276e-42)
(0.0002028008 4.5468441e-05 6.3553784e-24 2.4741084e-05 2.9736566e-24 3.9338571e-43)
(0.0001790659 3.0531347e-05 3.9927898e-24 1.3180836e-05 1.56937e-24 1.9604609e-43)
(0.00015250099 1.6456765e-05 2.1102843e-25 5.2622319e-06 6.2664067e-26 7.7790369e-46)
(0.00013433143 4.6413186e-06 4.3959634e-28 5.1733262e-07 3.8859977e-29 4.0686596e-50)
(0.00026735083 8.13562e-05 1.1819538e-23 5.4266032e-05 6.8034412e-24 9.1574152e-43)
(0.00021088544 5.6715102e-05 -5.5860544e-25 3.8455469e-05 -3.6325174e-25 4.5033484e-45)
(0.00018558064 4.17864e-05 1.314724e-23 2.4825897e-05 7.0543294e-24 2.1043166e-42)
(0.00015697745 2.6323762e-05 4.389314e-24 1.3244669e-05 2.0410481e-24 3.2916024e-43)
(0.00013716085 1.4327459e-05 1.0730679e-26 5.2824979e-06 -1.7583608e-27 2.888226e-46)
(0.00012045995 3.9228452e-06 -6.4491994e-24 5.1251532e-07 -8.8298984e-25 1.566019e-42)
(0.00027900274 9.3947109e-05 1.2577332e-23 7.2164947e-05 8.1357184e-24 1.027117e-42)
(0.00022041606 6.7567146e-05 1.0125821e-23 5.468632e-05 7.1098777e-24 9.9234522e-43)
(0.00019346053 5.2100409e-05 -7.9915526e-24 3.8554845e-05 -5.3459198e-24 7.7570268e-43)
(0.00016330755 3.6005754e-05 -4.4056971e-25 2.5001566e-05 -2.7764902e-25 3.2851208e-45)
(0.00014156707 2.2918405e-05 3.7162442e-24 1.3262651e-05 2.0848234e-24 3.3863776e-43)
(0.00012318012 1.2072883e-05 3.0399548e-24 5.3168559e-06 1.3292137e-24 3.4209737e-43)
(0.00010994142 3.2614718e-06 3.8951547e-25 5.0519271e-07 6.7694402e-26 9.4174207e-45)
(0.00029208529 0.00010619799 7.6006705e-24 9.201563e-05 5.4323343e-24 5.869625e-43)
(0.00023138137 7.7887102e-05 7.8157042e-24 7.2666347e-05 6.1420566e-24 5.6970242e-43)
(0.00020264856 6.1967194e-05 9.1211954e-24 5.4758225e-05 7.1976471e-24 9.9281211e-43)
(0.00017102833 4.4861398e-05 7.3933271e-26 3.8854631e-05 5.5685302e-28 3.291868e-45)
(0.00014782714 3.132813e-05 -9.0648227e-24 2.5074401e-05 -6.9547526e-24 1.9913231e-42)
(0.00012750049 1.9315996e-05 -3.2849998e-24 1.3321549e-05 -2.269933e-24 3.9812343e-43)
(0.00011260003 9.9661148e-06 -3.0786432e-24 5.324055e-06 -1.7371178e-24 5.8581331e-43)
(0.00010129888 2.6182515e-06 3.664942e-24 4.9738251e-07 8.6553208e-25 1.5515169e-42)
(0.00030653109 0.00011818691 -1.7522152e-23 0.00011403031 -1.383306e-23 1.9523849e-42)
(0.00024367897 8.7825237e-05 8.3224457e-24 9.2655151e-05 7.3671146e-24 6.7243246e-43)
(0.00021289766 7.1198758e-05 1.1410573e-25 7.2586737e-05 2.9425215e-26 6.2656296e-45)
(0.00018007891 5.3356598e-05 3.8370081e-24 5.5259756e-05 3.687029e-24 2.5448647e-43)
(0.00015549134 3.9021741e-05 1.202151e-25 3.8968213e-05 -1.3251132e-26 1.450468e-44)
(0.00013367151 2.6357276e-05 -1.1413646e-23 2.5251342e-05 -1.0994118e-23 4.9156529e-42)
(0.00011688974 1.5961367e-05 1.5767618e-24 1.3317049e-05 1.4726409e-24 1.9498767e-43)
(0.00010389944 7.8849211e-06 -3.8886666e-24 5.333118e-06 -3.0190691e-24 1.7632034e-42)
(9.5107584e-05 2.0236756e-06 -5.1954884e-24 4.8678345e-07 -1.8605656e-24 7.3426626e-42)
(0.00032261955 0.00013011514 1.5437756e-23 0.00013911403 1.3544412e-23 1.760748e-42)
(0.00025720847 9.7177584e-05 -2.9276074e-24 0.00011475226 -2.6974835e-24 2.3025596e-43)
(0.00022427514 7.9954906e-05 -3.6079283e-25 9.2217873e-05 -3.4936358e-25 2.1831596e-45)
(0.00019039508 6.133655e-05 -2.894778e-25 7.3305407e-05 -3.8848758e-26 6.2243412e-44)
(0.0001645352 4.637355e-05 -1.2281858e-24 5.5429973e-05 -1.3867058e-24 3.6190532e-44)
(0.00014126963 3.2786363e-05 1.4905694e-25 3.9296102e-05 -2.6441667e-26 3.6409885e-44)
(0.00012304544 2.1722839e-05 3.1754495e-24 2.5308327e-05 3.9637203e-24 6.3520037e-43)
(0.00010816714 1.2643309e-05 4.0912787e-24 1.3324686e-05 5.1042637e-24 2.0040974e-42)
(9.7689587e-05 5.9222031e-06 1.4879274e-24 5.3103179e-06 1.8011289e-24 6.2580547e-43)
(9.0575467e-05 1.4617871e-06 1.7520256e-25 4.7472618e-07 1.4128162e-25 4.3674603e-44)
(0.00034118613 0.0001420603 -7.2710118e-24 0.00016901106 -6.7315798e-24 3.1808457e-43)
(0.00027235911 0.00010550381 2.1631775e-24 0.0001397236 2.704173e-24 1.8938847e-43)
(0.00023679314 8.8027278e-05 5.9260194e-24 0.00011366799 6.5923245e-24 4.3988854e-43)
(0.00020197179 6.8916213e-05 -5.7212403e-24 9.3110617e-05 -7.0350706e-24 5.4921878e-43)
(0.00017479983 5.3289559e-05 5.4994946e-24 7.3497103e-05 7.6621819e-24 8.9876264e-43)
(0.00015025791 3.8917971e-05 -1.110684e-23 5.6006407e-05 -1.6449881e-23 4.9831244e-42)
(0.00013066907 2.6999884e-05 3.2299633e-26 3.9449952e-05 -2.0457628e-27 3.6782321e-45)
(0.0001143276 1.7105212e-05 6.4067239e-24 2.5409209e-05 1.1377493e-23 5.2401982e-42)
(0.00010198117 9.5173992e-06 -2.1293411e-24 1.3257908e-05 -4.1615561e-24 1.3461453e-42)
(9.3161892e-05 4.0293068e-06 2.1889166e-24 5.2736855e-06 5.6369295e-24 6.1990172e-42)
(8.7875126e-05 9.5449326e-07 -2.3979387e-26 4.5981939e-07 -2.6685854e-25 1.6232753e-43)
(0.00036421423 0.00015417479 -6.2649425e-25 0.00020666334 -1.7440569e-24 8.9218202e-44)
(0.00029159614 0.00011293573 -5.0256512e-24 0.00016956347 -7.7656569e-24 7.9992537e-43)
(0.00025099067 9.5234419e-05 -6.4430812e-24 0.00013759842 -7.9823789e-24 4.9152154e-43)
(0.00021485437 7.5936229e-05 0 0.00011454481 0 0)
(0.00018626492 5.9859799e-05 1.3708055e-25 9.3281621e-05 1.9046717e-25 6.4435317e-46)
(0.00016053333 4.4735642e-05 -4.1131589e-25 7.439968e-05 -3.8624169e-25 5.6574296e-44)
(0.00013971181 3.2010886e-05 -1.7688824e-24 5.6349491e-05 -3.4572238e-24 2.1851158e-43)
(0.0001219764 2.117558e-05 -3.1090859e-24 3.9715115e-05 -7.1678185e-24 1.3304005e-42)
(0.0001082102 1.2735043e-05 -4.1188185e-28 2.5369095e-05 -2.0711144e-25 3.8775259e-44)
(9.7512877e-05 6.492069e-06 -1.199961e-24 1.3163774e-05 -5.3174913e-24 2.2148821e-42)
(9.0509926e-05 2.2788736e-06 4.1305425e-26 5.2000142e-06 -2.3067094e-24 1.0597001e-42)
(8.6505138e-05 4.9249533e-07 -2.2482776e-25 4.4290864e-07 1.5173844e-25 5.4850768e-44)
(0.00039472681 0.00016628722 1.3801717e-25 0.00025737584 -3.9345393e-25 6.2653078e-45)
(0.00031923292 0.00011937224 -5.3870808e-25 0.00020763999 2.36382e-24 2.1443815e-43)
(0.00026872599 0.0001014616 0 0.0001651891 0 0)
(0.00022944769 8.2125177e-05 0 0.0001380486 0 0)
(0.0001990437 6.5959788e-05 -2.0339965e-24 0.00011464843 -3.3893788e-24 1.2550159e-43)
(0.00017211614 5.0321134e-05 1.4167573e-24 9.4614854e-05 3.1775318e-24 3.0048553e-43)
(0.00015002384 3.6792697e-05 -3.4717538e-24 7.5019838e-05 -8.175838e-24 1.0017172e-42)
(0.00013107661 2.4995616e-05 3.3827662e-24 5.6925065e-05 9.7062007e-24 1.6918433e-42)
(0.00011595468 1.5650182e-05 1.7959393e-25 3.9772668e-05 7.2439878e-25 1.3599017e-44)
(0.00010387027 8.4624775e-06 -1.4332684e-27 2.5288869e-05 3.7768807e-27 6.0007339e-48)
(9.4976366e-05 3.6915436e-06 -1.8259014e-25 1.2982031e-05 6.3778746e-24 3.2658763e-42)
(8.9226822e-05 6.4441641e-07 1.6373107e-24 5.0996687e-06 -4.4212684e-24 4.0458108e-42)
(8.64351e-05 9.1989247e-08 -6.5017759e-24 4.2355694e-07 2.4863938e-24 1.5598666e-41)
(0.00043702433 0.00017743725 1.0211934e-24 0.00032929151 1.6919318e-23 2.6453781e-42)
(0.00036209894 0.0001239977 4.4100209e-25 0.00025959181 -3.4514236e-25 6.642499e-45)
(0.00029308968 0.00010626751 -4.0141799e-24 0.00019914479 -1.8159852e-24 3.6086899e-43)
(0.00024754877 8.7440256e-05 2.816941e-24 0.00016503288 2.7982641e-24 2.505169e-43)
(0.00021363581 7.1422306e-05 -2.1427657e-24 0.00013811375 -3.4739935e-24 1.7764242e-43)
(0.0001850689 5.55841e-05 1.9844556e-25 0.00011646034 4.4788811e-25 2.8641848e-44)
(0.00016164867 4.1445917e-05 1.2619891e-24 9.5609835e-05 3.2887033e-24 1.1556087e-43)
(0.00014145941 2.8668196e-05 -3.9647251e-27 7.6065007e-05 -1.5213597e-26 2.4697844e-46)
(0.00012517379 1.8303083e-05 1.8355054e-24 5.7219841e-05 9.7644001e-24 1.7104179e-42)
(0.000111783 1.0185237e-05 4.4335508e-25 3.9797874e-05 7.5744541e-24 1.4972972e-42)
(0.0001015433 4.4796709e-06 -1.5600647e-25 2.5037543e-05 2.4020852e-24 2.382963e-43)
(9.3864454e-05 1.064082e-06 -1.5438057e-24 1.2739104e-05 4.838771e-24 1.913878e-42)
(8.9292262e-05 -8.1299572e-07 -1.7364175e-24 4.9607007e-06 2.0670196e-24 9.0301852e-43)
(8.731981e-05 -2.5295487e-07 2.6456693e-24 4.023055e-07 -6.7029783e-25 1.2110354e-42)
(0.00049449657 0.00018608796 -2.0067524e-23 0.00043197529 -6.2212384e-23 1.2801991e-41)
(0.00043176657 0.00012599147 2.1758524e-23 0.00033666193 -1.9888991e-23 8.4395931e-42)
(0.00032951907 0.00010892741 -1.7882249e-24 0.00024453468 -4.7856955e-24 1.1426024e-43)
(0.00027259911 9.1766123e-05 -1.1417795e-25 0.00019822014 4.2761764e-25 6.9913078e-45)
(0.00023196445 7.6344789e-05 -2.3496845e-26 0.00016498463 -2.5937427e-25 2.7858784e-45)
(0.00019990113 6.0368002e-05 -2.181457e-25 0.00014040125 -7.1825344e-26 6.3305223e-44)
(0.00017465565 4.5886352e-05 1.2186069e-24 0.00011793078 3.5708556e-24 1.1089067e-43)
(0.00015318782 3.2297542e-05 -1.0786603e-24 9.7307534e-05 -4.3685564e-24 2.0027137e-43)
(0.00013568054 2.0866603e-05 6.1072436e-26 7.676657e-05 6.7051224e-26 1.0407445e-44)
(0.00012120986 1.1595578e-05 -6.8830265e-27 5.7517502e-05 -9.6587797e-25 1.760985e-44)
(0.00010971452 5.0552487e-06 1.5580445e-26 3.9559627e-05 -1.8404331e-25 8.8438199e-46)
(0.00010073611 6.9912973e-07 3.4334983e-25 2.467146e-05 -5.1846462e-25 2.4314347e-44)
(9.4165429e-05 -1.2840456e-06 3.575437e-24 1.2401801e-05 -6.5129157e-24 3.6066072e-42)
(9.0355214e-05 -2.1064238e-06 -2.3559275e-24 4.790221e-06 2.0539196e-24 9.3996605e-43)
(8.9036599e-05 -5.3251387e-07 2.5815701e-24 3.7921184e-07 -5.0055235e-25 7.2992153e-43)
(0.00057240341 0.00018961656 1.7244985e-23 0.00058069171 -4.2981715e-23 9.2655707e-42)
(0.00054049239 0.0001223391 -3.222149e-23 0.00045177054 6.1924321e-24 4.7656377e-42)
(0.0003884139 0.00010841425 8.9363868e-24 0.00031128339 -4.3699144e-24 1.1255902e-42)
(0.00031025393 9.4674259e-05 -6.4089563e-24 0.00024265905 -2.0815106e-24 6.6659436e-43)
(0.0002573265 8.0583268e-05 3.6332365e-24 0.0001979181 3.5785611e-24 3.4650937e-43)
(0.00021847966 6.4792703e-05 -5.4289621e-24 0.00016772999 -1.2397238e-23 1.1166016e-42)
(0.00018960134 5.0021121e-05 3.2254668e-24 0.00014249266 8.936526e-24 8.9973116e-43)
(0.00016633814 3.5806828e-05 -4.3907904e-26 0.0001204684 -9.6335892e-26 1.6953038e-45)
(0.00014751945 2.3431628e-05 -4.1258273e-25 9.8625848e-05 -3.2826334e-24 1.1276815e-43)
(0.00013193895 1.2935083e-05 3.1546906e-25 7.7550263e-05 1.9246798e-26 8.9029042e-44)
(0.00011945439 5.2409873e-06 2.4653375e-24 5.744422e-05 -2.4592463e-23 1.0863232e-41)
(0.0001092875 1.1992373e-07 -1.0487223e-24 3.9153918e-05 5.8380339e-24 9.6630687e-43)
(0.00010143749 -2.7090079e-06 -1.3012048e-24 2.4115976e-05 2.9785487e-24 3.8746694e-43)
(9.5529295e-05 -3.3792941e-06 -8.6746601e-25 1.1987944e-05 9.1818372e-25 7.6271763e-44)
(9.2293826e-05 -3.1936666e-06 -3.3444284e-25 4.5849299e-06 9.3790946e-26 6.3258998e-45)
(9.1327225e-05 -7.5036066e-07 -3.5024491e-24 3.5478842e-07 5.3662895e-25 9.1396899e-43)
(0.00067288035 0.00017989039 0 0.00079168474 0 0)
(0.00070322744 0.00010950326 -6.1909312e-23 0.00062520907 2.8138928e-23 1.2750969e-41)
(0.00048286077 0.00010242704 4.001789e-24 0.00041235381 1.3898781e-23 5.3553896e-43)
(0.00037102751 9.5448862e-05 0 0.0003079566 0 0)
(0.00029545391 8.3855578e-05 0 0.00024229077 0 0)
(0.0002439878 6.8730179e-05 0 0.00020117144 0 0)
(0.00020833941 5.3981599e-05 -7.1819066e-26 0.000170545 4.2327312e-25 8.4106726e-45)
(0.0001815077 3.9172351e-05 1.8506337e-24 0.000146083 9.5004064e-24 6.4551189e-43)
(0.00016080447 2.5958847e-05 -7.0660783e-25 0.00012262971 -1.2680918e-24 2.8379715e-43)
(0.00014401128 1.427886e-05 -2.4410387e-26 0.00010016254 9.7003451e-24 9.6646661e-43)
(0.00013050964 5.3321445e-06 -1.8998436e-25 7.7858364e-05 8.8448877e-26 1.2219789e-44)
(0.0001195014 -9.682128e-07 -1.3443664e-24 5.7151274e-05 5.3568084e-24 5.2136615e-43)
(0.00011048604 -4.371306e-06 -1.6145393e-27 3.8444548e-05 -2.80825e-25 4.7480246e-45)
(0.00010330898 -5.7896266e-06 2.1543931e-24 2.3406225e-05 -3.373043e-24 5.1579151e-43)
(9.7829975e-05 -5.1450613e-06 8.0779289e-25 1.1487643e-05 -6.087296e-25 3.726979e-44)
(9.4842619e-05 -4.0817775e-06 1.8334299e-24 4.3511624e-06 -9.6336211e-25 2.3290726e-43)
(9.4045603e-05 -9.0327976e-07 0 3.2943131e-07 0 0)
(0.00078962564 0.00014906274 5.1791408e-23 0.0010770648 -1.3540839e-22 3.2536732e-41)
(0.0009373894 8.2217529e-05 1.7765218e-22 0.0008861691 -2.8455646e-23 5.2067749e-41)
(0.0006266065 8.6970734e-05 -1.1267045e-22 0.00056743743 3.1449588e-23 4.188716e-41)
(0.00047034716 9.2894446e-05 -2.8138372e-23 0.00040946272 1.4739776e-23 5.6020224e-42)
(0.00035696733 8.5477821e-05 -1.4421155e-23 0.00030748287 2.4924403e-25 2.2262253e-42)
(0.00028209301 7.1900699e-05 0 0.00024613508 0 0)
(0.00023401337 5.7654622e-05 -3.98354e-24 0.00020485863 -2.1048577e-24 7.9943937e-43)
(0.00020048275 4.2538819e-05 5.744685e-25 0.00017535313 -5.3739489e-25 7.3307751e-44)
(0.00017615826 2.8473991e-05 2.3898279e-24 0.00014934601 1.6191894e-23 2.2260063e-42)
(0.00015755831 1.56369e-05 -1.1162688e-24 0.00012522292 -1.4294779e-24 4.6754699e-43)
(0.00014292571 5.3926629e-06 7.3363748e-25 0.00010112853 -5.8796297e-24 3.5319671e-43)
(0.00013107322 -2.2220252e-06 -3.7969079e-25 7.7906561e-05 2.7187968e-25 2.1509264e-44)
(0.00012131527 -6.6845131e-06 -3.7291108e-24 5.6410319e-05 1.0865869e-23 2.2221005e-42)
(0.00011300269 -8.4911233e-06 8.2012415e-24 3.74864e-05 -1.4312376e-23 5.792187e-42)
(0.00010621284 -8.4134475e-06 2.7337959e-24 2.2516646e-05 -2.6545477e-24 3.6315292e-43)
(0.0001007995 -6.5960911e-06 1.3642755e-23 1.0916297e-05 -1.0739202e-23 1.1590731e-41)
(9.7850692e-05 -4.7504639e-06 5.8848973e-24 4.0918604e-06 -2.5163413e-24 1.7089728e-42)
(9.6994674e-05 -9.95075e-07 5.6283419e-24 3.0366243e-07 -6.0877685e-25 1.4414863e-42)
(0.00092435876 9.6304231e-05 -1.0254707e-23 0.0014462813 1.2142189e-23 3.6259929e-43)
(0.0012387241 3.1928216e-05 1.4667997e-22 0.0012627203 -3.0680105e-23 2.3955625e-41)
(0.00084118712 5.6273226e-05 2.6908999e-23 0.00080671409 1.0814571e-23 1.4134227e-42)
(0.00062302089 8.3033997e-05 -5.5798362e-23 0.00056755826 7.0460169e-24 9.1975343e-42)
(0.0004595278 8.4800051e-05 3.4657588e-24 0.00041064592 -6.5469209e-25 6.6906129e-44)
(0.00034312648 7.3638551e-05 -4.1882388e-24 0.00031193533 -1.4684251e-23 8.5090032e-43)
(0.00027236161 6.0754816e-05 7.1765785e-24 0.00025091084 -1.5782645e-23 3.7067018e-42)
(0.00022642442 4.5821727e-05 8.0105097e-24 0.00021107154 5.6942763e-24 3.1312595e-42)
(0.00019530015 3.1150579e-05 1.6208114e-24 0.00017995707 2.7362182e-24 2.9405906e-43)
(0.00017321453 1.7071815e-05 5.4976066e-25 0.00015333266 -1.2269514e-23 1.0287204e-42)
(0.00015683715 5.4592235e-06 3.3860307e-25 0.0001271852 2.2983962e-25 2.6001667e-44)
(0.00014405074 -3.5996034e-06 3.336821e-24 0.00010181876 -1.4445056e-23 2.131499e-42)
(0.00013357435 -9.2733867e-06 -1.0441093e-24 7.7344959e-05 4.9867702e-24 4.1337948e-43)
(0.00012464179 -1.2018684e-05 -7.0508535e-25 5.5301762e-05 8.4042564e-25 2.1778832e-44)
(0.00011667507 -1.2041553e-05 -1.3477747e-24 3.6225198e-05 1.2881905e-24 6.6072325e-44)
(0.0001098828 -1.0603514e-05 -2.3976287e-24 2.147718e-05 2.4401677e-24 3.0281108e-43)
(0.00010427478 -7.6907075e-06 5.2167688e-24 1.0280086e-05 -3.4615697e-24 1.3000828e-42)
(0.00010111158 -5.2068885e-06 -3.7470421e-26 3.8138316e-06 6.3748156e-26 2.5781009e-45)
(0.00010003925 -1.0273034e-06 5.5505962e-24 2.7799575e-07 -5.301504e-25 1.230678e-42)
(0.0010681629 3.4561968e-06 -1.0810008e-22 0.0019018414 9.0296108e-23 2.413804e-41)
(0.0015910909 -4.2493848e-05 -2.6153662e-22 0.0017801555 2.3438127e-23 5.271378e-41)
(0.0011400655 6.0170362e-06 6.0426944e-22 0.0011656385 -2.678126e-23 4.1662136e-40)
(0.00085087562 5.9622902e-05 4.4311597e-23 0.00081421041 -1.8510001e-23 3.9073213e-42)
(0.00062136703 7.8128932e-05 -1.7518733e-23 0.00057322062 -1.2417234e-23 1.0653522e-42)
(0.0004451397 7.3218675e-05 -2.2101251e-24 0.0004164409 -9.3626782e-24 2.6595317e-43)
(0.00033373922 6.2653135e-05 -2.8713618e-24 0.0003181214 4.6742432e-25 9.3813256e-44)
(0.00026516416 4.8765973e-05 -4.201118e-24 0.00025868959 -1.4164286e-23 1.0031424e-42)
(0.00022139421 3.3946193e-05 1.2363973e-24 0.00021728409 1.0437556e-24 7.4434115e-44)
(0.00019260546 1.8796889e-05 3.0725012e-24 0.00018568825 1.6766282e-23 2.7403576e-42)
(0.00017289712 5.6386623e-06 2.7678955e-24 0.00015665171 -2.2364792e-23 3.3287676e-42)
(0.00015857489 -5.0314194e-06 -1.2245847e-24 0.00012889192 3.3537964e-24 1.1594957e-43)
(0.00014730765 -1.2124458e-05 -2.6330655e-24 0.0001017216 6.750535e-24 4.803314e-43)
(0.00013783295 -1.5971777e-05 2.8520339e-25 7.6281164e-05 -4.9536328e-25 3.6194174e-45)
(0.00012927913 -1.6680931e-05 -9.3796619e-25 5.3725369e-05 7.2456702e-25 2.9005218e-44)
(0.00012124894 -1.5055449e-05 -8.9483567e-24 3.4706486e-05 1.0706652e-23 3.6092027e-42)
(0.00011413076 -1.2281052e-05 1.3699596e-24 2.0296055e-05 -1.7283411e-24 2.0008372e-43)
(0.00010803941 -8.4418724e-06 -9.9798809e-24 9.5957502e-06 5.533684e-24 3.6096783e-42)
(0.00010448354 -5.44995e-06 -2.6537288e-24 3.5231698e-06 8.4582463e-25 2.3227405e-43)
(0.00010303855 -1.0044443e-06 -6.129277e-24 2.5293063e-07 5.12775e-25 1.3074245e-42)
(0.0011721679 -0.00015985386 -1.4596803e-23 0.0024251183 4.3614244e-23 1.0465495e-42)
(0.0019897262 -0.0001411011 -5.5198041e-22 0.0024602052 4.6971962e-23 1.7717454e-40)
(0.001507494 -6.1553853e-05 -6.4630975e-23 0.0016801311 9.8663832e-23 9.4091216e-42)
(0.001175554 1.7254857e-05 -1.3868418e-22 0.0011889883 1.7854287e-24 2.0408446e-41)
(0.0008638434 5.9035791e-05 8.6759052e-24 0.00082902844 -3.0903354e-23 1.5542337e-42)
(0.0006098217 6.7836336e-05 2.8674585e-23 0.00058265938 1.6563865e-24 2.2320185e-42)
(0.00043646899 6.2378499e-05 -4.1585683e-23 0.00042414119 4.9471739e-24 9.3237583e-42)
(0.00032712631 5.086421e-05 -4.1477899e-23 0.0003277212 3.3753425e-24 1.8871468e-41)
(0.00026031735 3.6693442e-05 4.837843e-25 0.00026678261 2.2805917e-23 2.1745463e-42)
(0.00021887462 2.0816785e-05 0 0.00022515308 0 0)
(0.00019262344 6.1578803e-06 -1.9592469e-24 0.00019077886 1.6794417e-23 1.5552298e-42)
(0.00017527138 -6.3688086e-06 -1.7290896e-24 0.00015977403 -1.0033576e-24 3.233726e-43)
(0.00016265611 -1.5142301e-05 4.4820758e-24 0.00012962779 -1.6009755e-23 2.1260845e-42)
(0.00015261683 -2.0376857e-05 -1.9291992e-24 0.00010097433 7.9338565e-24 8.7474688e-43)
(0.00014359416 -2.1923784e-05 4.1535895e-24 7.4549876e-05 -6.3761068e-24 5.9290188e-43)
(0.00013501068 -2.0718696e-05 -8.3364468e-24 5.1740555e-05 1.0860648e-23 2.4787061e-42)
(0.00012650065 -1.7402631e-05 -2.0170187e-24 3.2937341e-05 1.1471044e-24 8.7442999e-44)
(0.00011873219 -1.3465064e-05 3.1184472e-24 1.9005463e-05 -2.5730589e-24 4.0589616e-43)
(0.00011193774 -8.8408448e-06 -6.0084349e-24 8.8782218e-06 3.0899005e-24 1.2520196e-42)
(0.0001078143 -5.4914735e-06 -7.375014e-25 3.2269445e-06 1.7185351e-25 1.1477068e-44)
(0.0001058877 -9.3103789e-07 -5.8804517e-24 2.2893794e-07 4.4213938e-25 1.1172311e-42)
(0.0012729825 -0.00039982674 1.8347342e-22 0.002987917 1.4862571e-23 5.8810821e-41)
(0.0023577151 -0.0003079671 -6.2014287e-22 0.0032972293 2.1017653e-23 1.851582e-40)
(0.0019403234 -0.00014300542 -6.19286e-22 0.0023854199 -2.934319e-23 2.2613665e-40)
(0.001587529 -4.2273782e-05 4.0672007e-22 0.0017358373 6.5361785e-23 1.2383144e-40)
(0.001213957 1.9695074e-05 1.7109981e-22 0.0012224347 -5.5352219e-24 2.9493174e-41)
(0.00085983842 5.0532859e-05 -9.4716543e-24 0.00084569298 -2.1390423e-23 7.6590189e-43)
(0.00060570309 5.8181735e-05 0 0.00059393374 0 0)
(0.00043060195 5.1037861e-05 -1.2994958e-24 0.00043509109 -3.2647238e-23 2.9563077e-42)
(0.00032249391 3.9024831e-05 1.1276112e-23 0.00033806694 -1.149545e-23 2.0231535e-42)
(0.00025788933 2.3039073e-05 8.9306461e-24 0.00027720063 2.8223392e-23 4.9582859e-42)
(0.00021912794 7.0546505e-06 -2.4011665e-24 0.00023245827 8.7897699e-24 4.3675909e-43)
(0.00019559039 -7.3879496e-06 -8.9342945e-25 0.0001957814 -2.30804e-24 1.297923e-43)
(0.00018022372 -1.8161126e-05 4.139587e-25 0.00016175021 4.4560737e-26 1.1413014e-44)
(0.00016911914 -2.5121347e-05 -3.2067132e-24 0.00012956191 6.934942e-24 3.9738969e-43)
(0.00015967099 -2.7846013e-05 3.3293798e-24 9.9320893e-05 -7.2952322e-24 6.0800975e-43)
(0.00015070189 -2.7192532e-05 -3.6172299e-24 7.2221012e-05 5.9794412e-24 5.6358469e-43)
(0.00014156073 -2.3929175e-05 1.269204e-24 4.9345662e-05 -1.377702e-24 4.2410112e-44)
(0.00013220306 -1.9106826e-05 -7.4968497e-24 3.0966869e-05 6.4946659e-24 1.5316646e-42)
(0.00012350272 -1.4126777e-05 -2.3899533e-24 1.7633795e-05 1.0979848e-24 9.8197761e-44)
(0.00011580136 -8.9071396e-06 -4.4707728e-25 8.14507e-06 1.3052319e-25 3.3554372e-45)
(0.00011099018 -5.344056e-06 -3.4526119e-24 2.9318745e-06 9.3271818e-25 3.5841309e-43)
(0.00010849545 -8.1284415e-07 0 2.0643171e-07 0 0)
(0.0014108385 -0.00069428666 3.5474278e-23 0.0035732634 9.1809389e-23 9.9276974e-42)
(0.002626823 -0.000622265 4.0243046e-22 0.004249933 -1.10184e-23 7.274866e-41)
(0.0023819251 -0.00026530781 3.8244001e-24 0.0032976661 -3.3821832e-23 3.8910426e-43)
(0.0020752473 -0.00010977508 6.3116641e-22 0.0024957535 4.1105949e-24 2.1533557e-40)
(0.001670292 -4.0025698e-05 1.9971229e-22 0.0018043456 -5.1862795e-23 2.9234855e-41)
(0.0012265413 1.0460358e-05 -8.021544e-23 0.0012545839 -5.5104717e-24 6.3960534e-42)
(0.00086703692 4.2739077e-05 7.2644487e-24 0.00086320526 6.4498154e-23 5.8023216e-42)
(0.00060356184 4.8468802e-05 -7.2260613e-23 0.00060771971 -1.0005137e-23 1.4410937e-41)
(0.00042597625 4.004803e-05 -9.2263611e-24 0.00044742978 -1.223794e-23 7.6349056e-43)
(0.00031999115 2.5204488e-05 -2.2138219e-24 0.00035154579 2.5068331e-25 5.3709022e-44)
(0.00025821589 8.2776757e-06 3.7427412e-25 0.00028717822 -1.5702402e-25 2.7457008e-45)
(0.0002225848 -8.0233878e-06 4.6504007e-24 0.00023981126 3.1015138e-24 9.3633286e-43)
(0.0002014079 -2.0950292e-05 6.9978148e-25 0.00019946159 -2.3566334e-24 2.9552528e-44)
(0.00018790592 -3.0019957e-05 -9.2316859e-24 0.00016278107 1.2212995e-23 1.8809725e-42)
(0.00017760323 -3.4324286e-05 -1.0015831e-23 0.00012831481 1.7051153e-23 2.4871641e-42)
(0.00016838685 -3.4603513e-05 -9.1597001e-24 9.6839226e-05 1.3598798e-23 2.0746265e-42)
(0.00015880895 -3.1482445e-05 1.8486402e-24 6.9274008e-05 -1.5104373e-24 5.2268488e-44)
(0.00014870949 -2.6336555e-05 1.4340309e-23 4.6608606e-05 -1.3931902e-23 4.668224e-42)
(0.0001381285 -2.010555e-05 2.4445169e-25 2.8838597e-05 -3.5625771e-25 7.4412823e-45)
(0.0001282549 -1.4293338e-05 -4.326366e-24 1.6215952e-05 2.523996e-24 4.6082573e-43)
(0.00011950346 -8.6570024e-06 0 7.4132752e-06 0 0)
(0.00011391091 -5.0255963e-06 7.662135e-24 2.6445267e-06 -1.8926147e-24 1.6876289e-42)
(0.00011078946 -6.5559072e-07 1.8909054e-25 1.8576651e-07 -6.939498e-27 5.4162794e-46)
(0.0016445605 -0.0010136688 -3.4643899e-22 0.0041614122 3.4072399e-23 2.9877148e-40)
(0.0028862488 -0.0010054833 1.1602801e-21 0.0052885834 1.6036682e-22 6.5896677e-40)
(0.0026898795 -0.00050032416 -1.0046096e-21 0.0043763 -1.3918803e-22 4.6074859e-40)
(0.0026093959 -0.00019909036 -3.6003713e-22 0.0035028124 -1.3395799e-22 6.2312204e-41)
(0.0022104773 -0.00010924204 5.8360207e-22 0.0026226613 1.0319224e-22 1.7867041e-40)
(0.0017217427 -5.4889637e-05 0 0.0018660859 0 0)
(0.0012542019 2.6207828e-06 1.5893823e-24 0.001283991 2.3039903e-23 4.8432787e-43)
(0.00087622152 3.6513794e-05 -4.0044445e-23 0.00088164868 -3.7107661e-23 4.0602057e-42)
(0.00060020586 3.9150659e-05 -5.1003322e-23 0.00062338229 8.6807416e-25 7.5444865e-42)
(0.00042290981 2.6662645e-05 -4.2914992e-23 0.00046430805 2.0958071e-23 1.1868659e-41)
(0.00032012714 9.6233349e-06 4.175676e-24 0.00036468303 2.1362726e-23 1.6817886e-42)
(0.00026199465 -8.2932829e-06 3.2569501e-24 0.00029732065 1.0588456e-23 8.6761487e-43)
(0.00022916935 -2.341512e-05 2.4030656e-25 0.00024565213 -1.3576324e-23 1.1273683e-42)
(0.00021031615 -3.4828276e-05 -6.4469167e-24 0.00020205494 1.7795575e-23 1.6816895e-42)
(0.00019792726 -4.1174396e-05 1.0904122e-23 0.00016232837 -2.365334e-23 3.7397749e-42)
(0.00018812012 -4.2833775e-05 2.1794255e-23 0.00012596645 -3.2271515e-23 9.0974239e-42)
(0.00017833748 -4.0248034e-05 1.2101049e-24 9.3476857e-05 2.3615029e-24 4.3607319e-43)
(0.00016772894 -3.4814626e-05 6.1396904e-24 6.5789278e-05 -6.4972978e-24 7.1815147e-43)
(0.00015616906 -2.7828668e-05 -1.5821039e-23 4.3591431e-05 1.4679013e-23 5.7304314e-42)
(0.00014407513 -2.0432269e-05 2.3830285e-24 2.6607586e-05 -2.6784548e-24 4.1492275e-43)
(0.00013283634 -1.397768e-05 8.9731769e-24 1.4786624e-05 -4.9243853e-24 1.9868158e-42)
(0.00012292707 -8.1186147e-06 -7.261413e-24 6.6993449e-06 2.8716726e-24 1.5702124e-42)
(0.00011650268 -4.5569553e-06 4.3823594e-24 2.3705052e-06 -1.0823807e-24 6.5539542e-43)
(0.00011271344 -4.6443924e-07 1.5469562e-25 1.6722629e-07 -4.8708101e-27 3.381795e-46)
(0.0020269959 -0.0013388215 8.386817e-23 0.0047311753 -2.7598503e-22 2.0669517e-41)
(0.0031920254 -0.0013954158 9.3825665e-22 0.0063850312 5.2983372e-23 4.7076812e-40)
(0.0029310109 -0.00084171682 1.9381521e-22 0.0055817566 -3.0192932e-22 3.0329557e-41)
(0.0030112661 -0.00039348878 2.3532862e-21 0.0047253232 2.3519049e-22 2.2305429e-39)
(0.0028162279 -0.0001920511 -4.9363241e-22 0.003722213 -1.698216e-22 1.0780985e-40)
(0.0023152734 -0.00013425467 6.2554615e-22 0.0027370311 1.0879093e-22 1.9898028e-40)
(0.0017898867 -6.9351914e-05 7.5746093e-25 0.0019169788 3.3848635e-23 6.8343131e-43)
(0.0012836787 6.4013761e-07 2.4326847e-22 0.0013108329 1.8776758e-23 5.7554171e-41)
(0.00088045031 3.1891064e-05 -1.7655798e-23 0.00090262908 -3.7834698e-23 2.2057665e-42)
(0.00059632216 2.6622585e-05 -2.5373954e-23 0.00064449122 -7.0087826e-24 1.9809897e-42)
(0.00042226711 1.0562834e-05 3.4963679e-25 0.00048111541 2.8489951e-23 1.8972928e-42)
(0.00032393729 -8.3613583e-06 -1.7256177e-23 0.00037799385 -9.4828624e-24 3.9154823e-42)
(0.00026916506 -2.5534208e-05 -2.6351848e-24 0.000305714 1.4946071e-23 8.0503179e-43)
(0.00023922263 -3.9439003e-05 5.6468017e-25 0.00025027551 1.5982774e-25 9.893353e-45)
(0.00022191043 -4.8156359e-05 1.2214979e-23 0.00020284891 -2.0795008e-23 2.519102e-42)
(0.0002103944 -5.1714101e-05 1.1915572e-24 0.0001604759 -2.759458e-24 5.8123424e-44)
(0.00020016676 -5.012569e-05 1.4015614e-25 0.00012240925 6.6085911e-25 1.6987119e-44)
(0.00018938648 -4.4787986e-05 1.0741269e-23 8.9317332e-05 -1.2206694e-23 1.8662841e-42)
(0.00017709226 -3.7007799e-05 0 6.1845897e-05 0 0)
(0.00016372391 -2.8440441e-05 2.2246864e-24 4.0373782e-05 -1.5045094e-24 6.6662911e-44)
(0.0001498469 -2.008517e-05 5.8122309e-25 2.4332578e-05 -3.1928408e-25 5.0654555e-45)
(0.00013710628 -1.3219932e-05 -9.8456691e-25 1.3379289e-05 4.2455719e-25 1.6683784e-44)
(0.00012598443 -7.3229943e-06 -4.1364104e-25 6.0177669e-06 3.5199676e-27 4.665925e-45)
(0.00011871405 -3.9603393e-06 -6.8551595e-24 2.1146033e-06 1.4598331e-24 1.3645361e-42)
(0.00011423858 -2.4722655e-07 -2.97848e-24 1.5097615e-07 1.6955158e-25 3.158444e-43)
(0.0025815279 -0.0016459805 4.4847164e-23 0.0052689212 1.3565702e-22 1.1322448e-40)
(0.0035637302 -0.001794038 -4.6914776e-22 0.0075077673 4.9048092e-23 1.4538637e-40)
(0.0032273539 -0.0012112309 -3.3057393e-22 0.0068863751 4.8094559e-23 5.6358255e-41)
(0.003298172 -0.00071352306 -2.9201272e-22 0.0061060885 -2.0595064e-23 3.5728145e-41)
(0.003325367 -0.00035962361 -1.9586982e-21 0.0050884145 -2.5267742e-22 1.4264726e-39)
(0.0029888523 -0.00022106545 -1.1725116e-22 0.0039205465 1.1502853e-22 9.2796341e-42)
(0.0024480974 -0.00016152379 -7.3796378e-25 0.0028298528 5.4343441e-23 1.1745192e-42)
(0.001858481 -7.2191826e-05 -2.4730603e-23 0.0019598717 -4.844991e-24 4.053577e-43)
(0.0013035413 4.0171971e-06 -1.7756809e-22 0.0013403991 -1.5765711e-23 3.1012846e-41)
(0.00087937484 2.2909524e-05 -5.4042303e-24 0.00093020058 4.4790139e-23 2.5929667e-42)
(0.00059387387 1.0037045e-05 -2.6097707e-23 0.00066489824 -1.907522e-23 2.7423766e-42)
(0.00042552599 -8.6779522e-06 4.3371656e-24 0.00049796786 -4.9041043e-25 1.1268571e-43)
(0.00033136447 -2.7402947e-05 8.3986145e-24 0.00038920112 4.3031106e-24 9.6206384e-43)
(0.00028014129 -4.3764367e-05 2.9407505e-24 0.00031275563 -7.2252979e-24 1.9197277e-43)
(0.00025234726 -5.5130715e-05 2.6957866e-24 0.00025276542 -1.4187587e-25 1.5837336e-43)
(0.00023640473 -6.1020156e-05 -2.0903825e-23 0.00020192604 2.9730991e-23 5.3576985e-42)
(0.00022476371 -6.0985823e-05 -3.4004637e-23 0.00015702906 3.5155216e-23 1.1516995e-41)
(0.00021367079 -5.6185743e-05 -1.688629e-23 0.00011773099 2.0448421e-23 3.9807894e-42)
(0.0002010636 -4.795353e-05 -2.3658042e-23 8.4454358e-05 2.3924593e-23 7.7016959e-42)
(0.00018668187 -3.8088226e-05 -5.587881e-25 5.7547991e-05 2.9971569e-25 2.8575063e-45)
(0.00017111415 -2.8143222e-05 2.159665e-23 3.704672e-05 -1.4624516e-23 6.8392481e-42)