/*--------------------------------*- C++ -*----------------------------------*\
  =========                 |
  \\      /  F ield         | OpenFOAM: The Open Source CFD Toolbox
   \\    /   O peration     | Website:  https://openfoam.org
    \\  /    A nd           | Version:  8
     \\/     M anipulation  |
\*---------------------------------------------------------------------------*/
FoamFile
{
    version     2.0;
    format      ascii;
    class       volScalarField;
    location    "100.9663773";
    object      k;
}
// * * * * * * * * * * * * * * * * * * * * * * * * * * * * * * * * * * * * * //

dimensions      [0 2 -2 0 0 0 0];

internalField   nonuniform List<scalar> 
9200
(
0.00015418983
0.00015505304
0.00015398357
0.00015592337
0.00015475673
0.0001537275
0.00015694821
0.00015555778
0.00015446058
0.00015353383
0.00015805042
0.00015651789
0.00015522445
0.00015424389
0.00015337333
0.00015926792
0.00015754018
0.0001561291
0.00015498073
0.00015406719
0.00015324738
0.00016056427
0.00015865423
0.00015707853
0.00015584687
0.0001547863
0.00015393164
0.00015314342
0.00016194545
0.00015982785
0.00015809495
0.00015674623
0.00015563074
0.00015464
0.00015382148
0.00015305705
0.00016344529
0.00016108983
0.0001591453
0.00015769141
0.0001565032
0.0001554747
0.00015452314
0.00015373076
0.00015298311
0.00016513029
0.00016248909
0.00016027321
0.00015865134
0.00015740648
0.00015634036
0.00015535633
0.00015442758
0.00015365289
0.00015291857
0.00016708701
0.00016410561
0.00016155129
0.00015969189
0.00015832397
0.00015724523
0.00015623378
0.00015526212
0.00015434502
0.00015358415
0.00015286132
0.00016945146
0.00016601647
0.0001630613
0.00016090568
0.00015933827
0.00015818117
0.00015717604
0.00015615445
0.00015518016
0.00015427062
0.00015352211
0.00015281
0.00017245578
0.00016835948
0.00016487055
0.00016236923
0.00016055014
0.00015922662
0.0001581733
0.00015714049
0.00015608257
0.00015510337
0.00015420129
0.00015346556
0.00015276345
0.00017640489
0.00017137399
0.00016710197
0.00016412853
0.00016200946
0.00016046968
0.00015929164
0.00015820505
0.00015709299
0.00015600955
0.00015502763
0.0001541359
0.0001534141
0.00015272192
0.00018173292
0.00017541659
0.00016995214
0.00016628157
0.0001637436
0.0001619483
0.00016058425
0.00015939321
0.00015819916
0.00015703011
0.00015593009
0.00015495205
0.00015407415
0.00015336762
0.0001526875
0.00019085586
0.00018098806
0.00017379639
0.00016898112
0.00016582528
0.00016366311
0.00016207243
0.00016072725
0.0001594327
0.00015815055
0.00015694784
0.00015584421
0.00015487718
0.00015401633
0.00015332592
0.00015266155
0.00021752887
0.00019150539
0.00017947494
0.00017253143
0.00016837012
0.00016566924
0.00016376256
0.00016222311
0.00016079584
0.00015939704
0.00015806301
0.00015684897
0.00015575431
0.00015480418
0.00015396279
0.00015328869
0.00015264402
0.00031483201
0.00022780878
0.00019044786
0.00017771505
0.00017159977
0.0001680551
0.00016568545
0.00016387384
0.00016228423
0.00016075928
0.00015929673
0.00015794514
0.00015673926
0.00015566351
0.00015473417
0.00015391371
0.00015325552
0.00015263401
0.00063159934
0.00037113867
0.00022860647
0.0001874221
0.00017605775
0.00017098377
0.00016791719
0.00016570023
0.00016388108
0.00016221877
0.00016063127
0.00015914869
0.00015780777
0.00015662507
0.00015557452
0.00015466802
0.00015386901
0.00015322589
0.00015263042
0.001463183
0.00082789654
0.00037856046
0.00021776237
0.00018356893
0.00017479615
0.00017058276
0.00016777376
0.00016560017
0.00016374614
0.00016203811
0.00016043579
0.00015897072
0.00015766193
0.00015651194
0.00015548942
0.00015460608
0.00015382846
0.00015320005
0.00015263215
0.0031713146
0.0019770379
0.00085451472
0.00033296558
0.00020218112
0.00018045786
0.00017390708
0.00017019823
0.00016750993
0.00016534688
0.00016347607
0.00016176964
0.00016019851
0.00015878041
0.0001575175
0.000156404
0.00015540927
0.00015454827
0.00015379161
0.00015317934
0.00015263795
0.0058351474
0.0042124632
0.0020494626
0.00069842107
0.00026639403
0.00019088879
0.00017842175
0.0001731358
0.00016970468
0.00016708653
0.000164943
0.00016309996
0.00016144738
0.00015994567
0.00015859391
0.00015738179
0.00015630341
0.00015533425
0.00015449421
0.00015375785
0.00015316363
0.00015264659
0.0090704089
0.0074944976
0.0043121388
0.0016169954
0.00047185981
0.00021917806
0.00018533182
0.00017692262
0.00017231417
0.00016905682
0.00016650384
0.00016441926
0.00016265982
0.00016110749
0.00015970196
0.00015842355
0.00015725866
0.00015621065
0.00015526396
0.00015444337
0.00015372658
0.00015315218
0.00015265649
0.012284194
0.011277412
0.0075791999
0.0033936225
0.00099896088
0.00030661782
0.00019820912
0.00018223349
0.00017557614
0.0001713738
0.00016825189
0.00016579547
0.0001638259
0.00016220192
0.00016078482
0.0001594875
0.00015827561
0.00015714868
0.000156125
0.00015519774
0.00015439521
0.00015369726
0.00015314401
0.00015266702
0.015014394
0.014884757
0.011372369
0.0060585726
0.0020814298
0.00053858552
0.00023131671
0.00018975026
0.0001799611
0.00017422371
0.00017030117
0.0001673278
0.00016502178
0.00016322133
0.0001617717
0.00016050941
0.00015931245
0.00015815035
0.00015705032
0.00015604523
0.00015513476
0.00015434915
0.00015366935
0.00015313806
0.00015267835
0.017053322
0.017826624
0.015078001
0.0093353501
0.0038353577
0.0010447509
0.00031752228
0.00020377779
0.00018557143
0.00017796059
0.00017281397
0.00016913467
0.00016635735
0.00016425794
0.00016266627
0.00016141162
0.00016029849
0.00015917697
0.00015804442
0.00015696113
0.00015596997
0.00015507418
0.0001543046
0.00015364243
0.00015313321
0.00015269024
0.018389412
0.019904949
0.018222305
0.012801243
0.0061814761
0.0019459881
0.0005131059
0.00023492239
0.00019371294
0.00018270564
0.00017607996
0.00017136995
0.0001679573
0.00016543408
0.00016358558
0.00016222009
0.00016115479
0.00016016282
0.00015907393
0.00015795308
0.00015687853
0.00015589777
0.00015501521
0.00015426105
0.00015361608
0.00015312854
0.000152701
0.019118411
0.02113892
0.020567954
0.016055305
0.0089001874
0.0032756971
0.00088130574
0.00030219065
0.00020810623
0.00018904077
0.00018030691
0.00017428305
0.00016997406
0.00016687886
0.00016465821
0.00016308126
0.00016193419
0.0001610331
0.00016008856
0.00015899328
0.00015787129
0.00015679989
0.0001558273
0.00015495717
0.00015421804
0.00015358989
0.00015312299
0.00015271002
0.01937763
0.021661707
0.022095202
0.01881956
0.011732528
0.0049751354
0.0014722352
0.00043445926
0.00023482924
0.00019906988
0.00018599683
0.00017817672
0.00017263101
0.00016874465
0.00016601216
0.0001641131
0.00016279849
0.00016184236
0.00016102255
0.00016004132
0.0001589258
0.00015779422
0.00015672288
0.00015575748
0.00015489947
0.00015417512
0.00015356335
0.00015311533
0.00015271695
0.019308562
0.021645864
0.022898662
0.02095885
0.014454518
0.0069372195
0.002300041
0.00065650789
0.00028429762
0.0002160857
0.00019520866
0.00018363347
0.00017631076
0.00017123849
0.00016779886
0.0001654376
0.00016383772
0.00016274162
0.00016190014
0.00016104397
0.00016000771
0.00015886255
0.0001577178
0.00015664568
0.00015568747
0.00015484164
0.00015413189
0.000153536
0.00015310433
0.00015271855
0.019018658
0.021265642
0.023122256
0.022454399
0.016904513
0.0090415525
0.0033555847
0.00099115812
0.00037639695
0.00024738138
0.00021164903
0.0001931368
0.00018172916
0.00017476623
0.00017021097
0.00016719955
0.00016517316
0.00016381441
0.00016284514
0.00016200044
0.00016106576
0.00015997385
0.00015879688
0.0001576391
0.00015656706
0.00015561665
0.00015478336
0.00015408813
0.00015350758
0.00015308997
0.00015271344
0.018545389
0.020649346
0.02292332
0.023363138
0.018985176
0.011172151
0.0046141766
0.0014765283
0.00054063561
0.00031750037
0.00024675905
0.0002122392
0.00019198179
0.00018024745
0.00017357245
0.00016956963
0.00016693256
0.00016517712
0.00016396606
0.00016301066
0.00016208877
0.00016107489
0.00015993046
0.0001587246
0.00015755639
0.00015648619
0.00015554462
0.00015472443
0.00015404356
0.00015347783
0.00015307332
0.00015270231
0.018007685
0.019864856
0.022420859
0.023780843
0.020658471
0.013228872
0.0060332038
0.0021512726
0.00084655652
0.0004924732
0.00034779328
0.00026241281
0.0002158189
0.00019148031
0.0001790439
0.00017280032
0.00016927269
0.00016694092
0.00016536052
0.00016418148
0.00016315881
0.00016214457
0.00016106169
0.00015987259
0.00015864354
0.00015746871
0.00015640262
0.00015547117
0.00015466455
0.00015399805
0.00015344658
0.00015305449
0.00015268684
0.01749921
0.019088923
0.021668414
0.023813817
0.021927483
0.015139927
0.0075562906
0.0030218031
0.0013817033
0.00091498338
0.00065417354
0.00043519352
0.0002925493
0.00022208661
0.00019077486
0.00017790459
0.00017238284
0.00016924497
0.00016713087
0.00016560471
0.00016437085
0.00016325507
0.00016215989
0.00016102196
0.00015979824
0.00015855286
0.00015737568
0.00015631624
0.0001553964
0.00015460364
0.00015395152
0.0001534138
0.00015303347
0.00015266859
0.017093913
0.018437363
0.020829437
0.023467497
0.02290349
0.016860518
0.0091275215
0.0040544975
0.0021640402
0.0017285554
0.0014562387
0.0010112584
0.00058699364
0.00033912239
0.00022616892
0.00018878779
0.00017689488
0.00017224646
0.00016939623
0.00016737262
0.00016580902
0.00016448996
0.00016329032
0.00016213272
0.00016095478
0.00015970723
0.00015845257
0.00015727741
0.00015622712
0.00015532011
0.00015454171
0.00015390396
0.00015337954
0.00015301032
0.00015264794
0.016840209
0.017981334
0.020025171
0.022836936
0.023515291
0.018551677
0.010698777
0.0051972093
0.0031305875
0.0029145914
0.0029623705
0.0025183714
0.0016121948
0.00081637068
0.00037157007
0.00022136489
0.00018585611
0.00017626887
0.00017229316
0.0001695956
0.00016755692
0.000165923
0.00016452734
0.00016326419
0.00016206381
0.00016086132
0.00015960041
0.00015834327
0.0001571743
0.00015613565
0.00015524239
0.0001544788
0.00015385543
0.00015334386
0.00015298518
0.00015262513
0.016758805
0.017742218
0.019345852
0.022038451
0.023706524
0.020102235
0.012441861
0.0063982186
0.0041881858
0.0043080137
0.0050393537
0.0052113389
0.0041940427
0.0024351784
0.00096973265
0.00035302075
0.00020954531
0.0001831546
0.00017598978
0.00017240384
0.0001697196
0.00016762905
0.00016593434
0.0001644834
0.00016317992
0.0001619565
0.00016074396
0.00015947932
0.00015822597
0.00015706699
0.00015604186
0.00015516342
0.00015441504
0.00015380598
0.00015330685
0.00015295822
0.00015260039
0.016843837
0.017697647
0.018834655
0.02119313
0.023521942
0.021339914
0.014271993
0.007763948
0.0052553214
0.0057235891
0.0073013539
0.0087001551
0.0085743909
0.0062053319
0.0029124637
0.00088508997
0.00029516821
0.00019835419
0.00018135471
0.00017590627
0.00017243378
0.00016970991
0.00016757727
0.0001658442
0.00016436337
0.00016304349
0.00016181548
0.00016060572
0.00015934592
0.00015810181
0.00015695616
0.00015594611
0.00015508342
0.00015435055
0.00015375571
0.00015326866
0.00015292962
0.00015257398
0.017064884
0.017806684
0.018484823
0.020398602
0.023034667
0.02221432
0.016023903
0.0092929094
0.0063177207
0.0070226468
0.0093893337
0.012185576
0.013867772
0.012189302
0.0072060148
0.0025937109
0.00062711366
0.00024133066
0.00019165538
0.00018045093
0.00017579725
0.00017231801
0.00016955573
0.00016740409
0.00016566005
0.00016417705
0.00016286289
0.00016164603
0.00016044995
0.00015920219
0.00015797232
0.00015684223
0.0001558488
0.00015500263
0.00015428548
0.00015370475
0.00015322941
0.00015289956
0.00015254612
0.017380749
0.017999508
0.018254455
0.019713736
0.022343296
0.022708567
0.017613617
0.010897282
0.0074634533
0.0080842446
0.011098961
0.015068099
0.01861503
0.018832191
0.0138172
0.0064167048
0.0017360768
0.00039002769
0.00021319606
0.0001882169
0.00017988766
0.00017556401
0.00017204552
0.00016926075
0.00016711952
0.00016539606
0.00016393638
0.00016264646
0.00016145365
0.00016027998
0.00015905011
0.00015783828
0.00015672589
0.00015575036
0.00015492131
0.00015422002
0.00015365323
0.00015318928
0.00015286826
0.00015251703
0.018191217
0.017730422
0.018081531
0.019124998
0.021556976
0.022835171
0.018966687
0.012523851
0.0086748877
0.0090241144
0.012307186
0.017112436
0.021985222
0.024289304
0.021175214
0.012586483
0.0044128555
0.00090585387
0.00026778275
0.00020224896
0.00018609259
0.00017936389
0.00017518601
0.00017162079
0.00016883733
0.00016674321
0.00016506962
0.00016365392
0.00016240259
0.00016124366
0.00016009904
0.00015889239
0.00015770063
0.0001566078
0.00015565119
0.0001548397
0.00015415432
0.0001536013
0.00015314841
0.0001528359
0.00015248692
0.017895126
0.018295583
0.018041827
0.018614633
0.020809283
0.022634198
0.020024115
0.01410981
0.0099445627
0.0098873194
0.01305278
0.018347551
0.023882989
0.027757889
0.027331727
0.020058358
0.0091906424
0.0023198063
0.00043258425
0.00022688249
0.00019713238
0.00018443299
0.00017877871
0.00017466462
0.00017105831
0.00016831068
0.00016629981
0.00016469865
0.0001633418
0.00016213914
0.00016102087
0.00015991013
0.00015872993
0.00015756049
0.00015648862
0.00015555168
0.00015475806
0.00015408857
0.00015354909
0.00015310697
0.00015280267
0.00015245599
0.018146667
0.017630436
0.018240671
0.018238526
0.020075021
0.022176066
0.02075091
0.015590318
0.011264141
0.010708547
0.013558571
0.018633633
0.024614869
0.029367051
0.031339737
0.02706589
0.015787073
0.005226275
0.00094872499
0.00027309698
0.00021426972
0.00019362503
0.00018308756
0.00017808597
0.00017401241
0.00017039241
0.00016772544
0.00016581488
0.00016430056
0.00016301115
0.00016186305
0.00016078947
0.00015971639
0.00015856416
0.00015741877
0.00015636892
0.0001554522
0.00015467662
0.00015402294
0.00015349677
0.00015306513
0.00015276876
0.00015242442
0.019401815
0.017675572
0.017239772
0.017973827
0.018249996
0.021554568
0.021139125
0.016901064
0.012618371
0.011541948
0.013913108
0.018587962
0.024116659
0.029536438
0.033221572
0.032295751
0.023039888
0.0099071417
0.0022225817
0.00039918651
0.00023625858
0.00020807095
0.0001906709
0.0001818459
0.00017727175
0.00017325831
0.00016968461
0.00016712953
0.0001653143
0.00016389062
0.00016267151
0.0001615802
0.00016055354
0.00015951925
0.00015839652
0.00015727633
0.00015624923
0.0001553531
0.00015459561
0.0001539576
0.00015344448
0.00015302303
0.00015273434
0.00015239239
0.020890181
0.018787389
0.017165917
0.016696133
0.017465972
0.018020828
0.021209402
0.017980702
0.01396708
0.012440478
0.014237609
0.018339956
0.023273031
0.028372481
0.03332281
0.03534527
0.029569276
0.016045678
0.0046867114
0.00077495181
0.00026136294
0.00022531158
0.00020346405
0.00018790378
0.000180606
0.0001763488
0.00017243784
0.00016897557
0.00016654587
0.00016482423
0.00016348093
0.00016233046
0.00016129542
0.00016031587
0.00015932062
0.00015822814
0.0001571339
0.00015613002
0.00015525466
0.00015451523
0.0001538927
0.00015339235
0.00015298083
0.00015269955
0.00015236003
0.021036946
0.02025878
0.018229453
0.016597333
0.015995054
0.016711382
0.01751714
0.018797355
0.015246421
0.013436762
0.014652672
0.0180973
0.022302047
0.026784966
0.031880043
0.036313012
0.03447261
0.02279448
0.0085953832
0.0016774068
0.00033696678
0.00023259344
0.00021912098
0.00019937736
0.00018534993
0.00017932168
0.00017534121
0.00017158149
0.00016828457
0.00016598416
0.00016435266
0.00016308015
0.00016199362
0.00016101296
0.00016007861
0.000159122
0.00015806
0.00015699211
0.00015601172
0.00015515717
0.00015443568
0.0001538284
0.00015334052
0.00015293865
0.00015266456
0.0001523275
0.01935299
0.020716374
0.01966594
0.017725314
0.015967725
0.015146025
0.015726488
0.016729168
0.016402816
0.014524168
0.01524411
0.018041614
0.021496852
0.025155976
0.029758983
0.035355529
0.037448554
0.029177028
0.013863796
0.0034477107
0.00056152608
0.00023922089
0.00022369319
0.0002137043
0.0001954261
0.00018298062
0.00017798299
0.00017427668
0.00017071326
0.00016761912
0.0001654473
0.00016390178
0.00016269336
0.00016166503
0.00016073463
0.0001598436
0.00015892462
0.00015789295
0.00015685151
0.00015589467
0.00015506087
0.00015435713
0.00015376482
0.00015328912
0.00015289663
0.0001526295
0.00015229492
0.017399351
0.019686989
0.020347358
0.019180031
0.017270359
0.015289384
0.014169912
0.014545659
0.01566977
0.015660642
0.016042947
0.018286737
0.021068533
0.023856403
0.027501552
0.033150686
0.038267907
0.034688042
0.020038814
0.006360842
0.0011003886
0.0002727261
0.00021812083
0.00021635594
0.00020822891
0.00019132532
0.00018072072
0.00017660302
0.00017318578
0.00016985234
0.00016698084
0.00016493552
0.00016347186
0.00016232278
0.00016134657
0.00016046223
0.00015961216
0.00015872946
0.00015772764
0.00015671256
0.00015577919
0.00015496597
0.00015427972
0.0001537021
0.00015323825
0.00015285488
0.00015259448
0.00015226241
0.016794452
0.018232174
0.019856776
0.020024023
0.018835972
0.016865094
0.014580214
0.013095648
0.013214891
0.014372316
0.017029785
0.018868304
0.021115183
0.023109332
0.025599621
0.030357272
0.037010608
0.038605139
0.026916466
0.01046333
0.0021748252
0.00038225945
0.00021319954
0.00020799484
0.00020798602
0.00020228689
0.00018688176
0.00017857037
0.00017521193
0.00017209878
0.00016901413
0.00016636697
0.00016444817
0.00016306241
0.00016196884
0.000161039
0.0001601969
0.0001593853
0.00015853726
0.00015756462
0.00015657564
0.00015566554
0.00015487266
0.00015420361
0.00015364034
0.00015318801
0.00015281349
0.00015255963
0.00015223013
0.018160037
0.01789817
0.01893189
0.019957887
0.019820902
0.018647983
0.016512079
0.013853911
0.011954735
0.011783464
0.012886698
0.019766005
0.021635927
0.022960296
0.024323925
0.027652068
0.03426923
0.039933068
0.033760266
0.016299774
0.0040106585
0.00065248107
0.00022402612
0.00019652863
0.00019754918
0.00019863048
0.00019554039
0.00018261345
0.0001765524
0.00017384689
0.00017104257
0.00016821114
0.00016577773
0.00016398444
0.00016267296
0.00016163074
0.00016074245
0.00015993922
0.00015916365
0.00015834858
0.00015740433
0.00015644108
0.00015555395
0.0001547811
0.0001541289
0.00015357963
0.00015313848
0.00015277259
0.00015252505
0.00015219821
0.020940653
0.019404638
0.018980485
0.019572524
0.020103497
0.019802412
0.018620014
0.01620424
0.013112482
0.010780472
0.010297046
0.011330527
0.02255389
0.023308246
0.023679729
0.02547535
0.030909066
0.038722522
0.038668531
0.023744377
0.0073685749
0.001208572
0.00027802613
0.00019218897
0.00018455825
0.00018603884
0.00018880624
0.00018826936
0.00017877087
0.0001746963
0.0001725429
0.0001700393
0.00016745322
0.00016521761
0.00016354397
0.00016230141
0.00016130802
0.0001604571
0.00015968936
0.00015894762
0.00015816385
0.00015724713
0.00015630913
0.00015544462
0.00015469141
0.00015405567
0.00015352003
0.00015308978
0.00015273228
0.00015249085
0.00015216655
0.023746913
0.022329185
0.02075869
0.020094469
0.020251521
0.02039582
0.020011428
0.018734722
0.015915131
0.012343865
0.0095959336
0.008841621
0.0097708026
0.023961707
0.023474066
0.02392619
0.027679414
0.035702839
0.040831889
0.031083049
0.012797746
0.0025091685
0.00042069184
0.00021432956
0.00018151186
0.00017251188
0.0001743323
0.00017927211
0.0001815279
0.00017543865
0.00017302378
0.00017132819
0.00016910549
0.00016674708
0.00016468985
0.00016312407
0.00016194713
0.00016100013
0.00016018442
0.00015944727
0.00015873744
0.00015798337
0.00015709329
0.00015618003
0.00015533768
0.00015460368
0.00015398399
0.00015346168
0.00015304205
0.00015269264
0.00015245675
0.00015212983
0.024698254
0.025009826
0.023850257
0.022240467
0.021307396
0.021063838
0.020913824
0.020453936
0.018946823
0.015597303
0.011526197
0.0084368493
0.0074627948
0.0081191963
0.023420238
0.022819038
0.024978924
0.031867053
0.040216682
0.036907432
0.019715489
0.0052162344
0.00080719659
0.00029693776
0.00021651321
0.00017563364
0.00016110565
0.00016350852
0.00017082942
0.00017568347
0.00017266186
0.0001715453
0.00017022302
0.00016825143
0.00016609585
0.00016419366
0.00016272404
0.00016160955
0.00016070644
0.00015992396
0.00015921335
0.00015853317
0.00015780735
0.00015694304
0.00015605392
0.00015523323
0.00015451799
0.00015391402
0.00015340476
0.00015299532
0.00015265324
0.00015241687
0.00015209229
0.02320775
0.025247685
0.02623294
0.025394963
0.023826346
0.0226667
0.022074693
0.02168847
0.021087434
0.01917856
0.015194762
0.010626198
0.00729277
0.0060679424
0.0064311202
0.021842511
0.022812409
0.028073879
0.037445008
0.040189217
0.027117589
0.0096534945
0.0018136172
0.00048357506
0.00034636113
0.00024264981
0.00017439534
0.0001516136
0.0001544854
0.00016399477
0.00017092121
0.00017043571
0.00017026375
0.00016923896
0.000167481
0.00016549859
0.00016372752
0.00016234344
0.00016128805
0.00016042636
0.00015967519
0.00015898955
0.00015833482
0.00015763597
0.00015679652
0.00015593089
0.00015513134
0.00015443451
0.00015384597
0.00015334923
0.00015294886
0.00015260379
0.00015237629
0.00015205425
0.020684058
0.022566147
0.025346791
0.027095222
0.026853294
0.025474269
0.024154244
0.023287141
0.022680674
0.021817527
0.019343568
0.014564373
0.0096024294
0.0060893511
0.0047012762
0.0047840886
0.020944451
0.024776677
0.033504921
0.040631262
0.033573322
0.015780109
0.0038958418
0.00093945639
0.00060782231
0.00048201613
0.00029302503
0.00017908544
0.00014485304
0.00014777532
0.00015892913
0.00016724638
0.00016871653
0.00016917647
0.00016837926
0.0001667943
0.00016495123
0.00016328896
0.00016198167
0.00016098196
0.00016015925
0.00015943758
0.00015877544
0.00015814244
0.00015746929
0.00015665379
0.00015581102
0.00015503226
0.00015435353
0.00015377976
0.00015329403
0.00015288777
0.00015255389
0.00015233526
0.00015201574
0.019087225
0.01912819
0.021339622
0.02475351
0.027360205
0.027934799
0.026987138
0.025672946
0.024616261
0.023774173
0.022514213
0.019184391
0.013678531
0.0083841103
0.0048488268
0.0034204156
0.0032791129
0.022016766
0.029349554
0.038658411
0.037847199
0.022810489
0.007545384
0.0019078693
0.0011089299
0.00098268273
0.00071930581
0.00037090752
0.00018929523
0.00014091464
0.00014334351
0.00015548154
0.00016457667
0.00016743338
0.00016828004
0.00016764457
0.00016618427
0.00016444764
0.00016287439
0.000161638
0.00016069061
0.00015990451
0.0001592106
0.00015857061
0.00015795606
0.00015730726
0.00015651493
0.00015569463
0.00015493629
0.00015427489
0.00015371394
0.00015321717
0.00015282672
0.00015250415
0.00015229374
0.00015197685
0.019608453
0.017055767
0.017116737
0.019466845
0.02337952
0.026844949
0.028401177
0.02813392
0.027029577
0.025892219
0.024794887
0.02287769
0.018667144
0.012427613
0.0069698881
0.0036191944
0.0022976491
0.0020306814
0.025593615
0.03515737
0.039384868
0.029387422
0.012882107
0.0037945468
0.0019341344
0.0018482384
0.0016814744
0.0010822518
0.00047146297
0.00020212087
0.00013892082
0.00014079651
0.00015338397
0.00016279516
0.00016653143
0.00016756929
0.00016702173
0.00016563935
0.00016398041
0.00016247996
0.00016131166
0.0001604133
0.00015966153
0.00015899375
0.00015837462
0.00015777741
0.00015714988
0.00015638028
0.00015558201
0.00015484321
0.00015419667
0.00015361812
0.000153141
0.00015276659
0.0001524544
0.00015225183
0.00015193761
0.022460448
0.017365378
0.014862144
0.014724125
0.017048354
0.021261883
0.025472715
0.02805647
0.028652575
0.0279766
0.026893982
0.025431274
0.022831764
0.017603168
0.010753837
0.0054073553
0.0024806194
0.001409616
0.0011318734
0.031072836
0.038414999
0.034156679
0.019299734
0.0070678945
0.003238956
0.0030520162
0.0032443024
0.0028239714
0.0015623281
0.00057761322
0.00021325039
0.00013804682
0.00013968151
0.00015242677
0.00016182771
0.00016594752
0.00016701805
0.00016649078
0.00016514632
0.00016354212
0.00016210112
0.00016100192
0.00016014934
0.00015942975
0.00015878654
0.00015818708
0.00015760621
0.00015699746
0.00015625018
0.00015547292
0.00015475064
0.0001540777
0.00015352388
0.00015306677
0.00015270701
0.0001524048
0.0001522095
0.00015189808
0.027314503
0.019883576
0.015288934
0.012666428
0.012191357
0.014303062
0.018564181
0.023292361
0.026803155
0.028330743
0.028285607
0.027324025
0.025565876
0.022142491
0.015825676
0.0086687116
0.003816486
0.0015351051
0.00080543991
0.00059902708
0.035703243
0.036413676
0.025504148
0.011894171
0.0053507444
0.0045126544
0.0052022649
0.0055166639
0.0044187992
0.0020864483
0.0006669905
0.00022051985
0.00013739157
0.000139563
0.00015236098
0.0001614778
0.00016560785
0.00016659248
0.00016602951
0.00016469217
0.000163125
0.00016174112
0.00016070797
0.00015989804
0.0001592086
0.0001585885
0.0001580076
0.00015744212
0.00015685031
0.00015612426
0.00015536449
0.00015460526
0.00015396135
0.00015343284
0.00015299394
0.00015264822
0.00015235534
0.00015216683
0.00015185831
0.032181891
0.024131024
0.017859138
0.013505747
0.010683519
0.0097721781
0.011496679
0.015532973
0.020468035
0.024669766
0.02709049
0.027804936
0.027072926
0.02496068
0.020542224
0.013246703
0.0063201208
0.0023848199
0.0008682802
0.00046640641
0.00034727927
0.036281426
0.030151786
0.017682474
0.0086756893
0.0062992603
0.0071726728
0.0086138135
0.0086860967
0.0061848933
0.0025352223
0.00071872116
0.00021397396
0.00013511612
0.00014011374
0.00015290667
0.00016155925
0.000165444
0.00016625584
0.00016561613
0.00016426361
0.00016272171
0.0001614003
0.00016042899
0.00015965877
0.00015899756
0.00015839918
0.00015783578
0.00015728484
0.00015670796
0.00015599944
0.00015519308
0.00015446342
0.00015384978
0.00015334422
0.00015292281
0.00015259013
0.00015230609
0.00015212384
0.00015181836
0.034448858
0.028807066
0.021769036
0.016412384
0.012156508
0.0090244157
0.0076376368
0.0088567708
0.012440165
0.017252654
0.021831808
0.025132016
0.026530916
0.025932858
0.02331251
0.017820115
0.0099914439
0.0040251316
0.0013067751
0.00048850911
0.0003061137
0.00024883565
0.032572135
0.023181387
0.013231382
0.0087279132
0.009012643
0.011256382
0.013181294
0.012213354
0.0076467659
0.0027374352
0.00066502336
0.00019059685
0.00013248736
0.00014125325
0.00015385912
0.0001619202
0.00016539153
0.00016597175
0.00016522899
0.00016384869
0.00016232754
0.00016107788
0.00016016419
0.00015943089
0.00015879611
0.00015821818
0.00015767128
0.00015713404
0.00015656742
0.00015581083
0.00015502516
0.0001543279
0.00015374191
0.00015325841
0.00015285328
0.0001525328
0.00015225706
0.00015208057
0.00015177826
0.032964493
0.031881899
0.026037689
0.020302298
0.015597927
0.011225866
0.0076766422
0.0058494959
0.0065435772
0.0095342301
0.013940351
0.018791944
0.022631478
0.02433033
0.023670004
0.020390651
0.013980067
0.006529666
0.0021822907
0.00066422702
0.00030826516
0.00023748439
0.00021184553
0.027260994
0.018232503
0.012103749
0.010984344
0.013143519
0.016361687
0.018043269
0.015262163
0.0082552576
0.0024868365
0.00052874338
0.00016330869
0.00013101361
0.0001428716
0.00015505362
0.00016243567
0.0001653881
0.00016570558
0.00016485035
0.00016344039
0.00016193851
0.00016077323
0.00015991278
0.00015921381
0.00015860378
0.00015804508
0.00015751373
0.00015698779
0.00015637498
0.00015562439
0.00015486423
0.00015419744
0.00015363825
0.0001531752
0.00015278537
0.00015247623
0.00015220833
0.00015203707
0.00015173793
0.029450316
0.032059183
0.029395521
0.024285129
0.01976327
0.015307131
0.010531681
0.0065277191
0.0043905018
0.004643704
0.0069984898
0.011002402
0.015789378
0.019483803
0.021153578
0.020180535
0.016205931
0.0094974645
0.003577895
0.0010261219
0.00036429548
0.00023495654
0.00020855935
0.00019502264
0.022653368
0.016188744
0.013486423
0.014617806
0.017966009
0.021448274
0.022124176
0.016937397
0.0077504857
0.0019325637
0.00037783425
0.00014200638
0.00013114343
0.00014479634
0.00015635592
0.00016299954
0.0001653788
0.00016543246
0.00016447095
0.00016303431
0.00016157002
0.00016048539
0.00015967402
0.00015900695
0.0001584201
0.00015787948
0.00015736116
0.00015679224
0.00015618388
0.00015544389
0.00015470903
0.00015407276
0.00015353853
0.00015309462
0.0001527191
0.00015242046
0.00015215992
0.00015199325
0.00015169733
0.025794613
0.030166863
0.030678716
0.02766607
0.023728124
0.020032803
0.015251125
0.0098268516
0.0054603744
0.0032175029
0.0031783352
0.0050476181
0.0085890042
0.012623565
0.015834907
0.017116628
0.015652894
0.011242235
0.0053454136
0.0016242372
0.00048539173
0.00024750129
0.00020589249
0.00019407419
0.00018495546
0.020210503
0.016569462
0.016233685
0.018654802
0.022505561
0.025610435
0.024841818
0.01702569
0.0063875241
0.00131449
0.00025771172
0.00012953668
0.00013253619
0.0001468539
0.00015766339
0.00016352079
0.00016532999
0.00016514145
0.00016408535
0.00016262676
0.00016122229
0.0001602134
0.00015944719
0.00015880976
0.00015824463
0.00015771926
0.00015715615
0.00015659801
0.00015599766
0.00015526794
0.00015456077
0.00015395357
0.00015344274
0.00015301663
0.00015265446
0.0001523655
0.00015211157
0.00015194932
0.00015165644
0.023496537
0.027710216
0.030161938
0.029659718
0.027152337
0.024318562
0.020757899
0.015065381
0.0089096291
0.0044150546
0.0022944679
0.0021616042
0.0036641514
0.0063769091
0.0094893256
0.011946281
0.012583966
0.010674195
0.0065186945
0.0024499958
0.00068595274
0.00027800321
0.00020712863
0.00019234344
0.00018526022
0.00017822228
0.019815417
0.018279635
0.019262911
0.022326919
0.026245271
0.028727032
0.026185199
0.015579374
0.0046448491
0.00080020986
0.00018161652
0.00012421782
0.00013467019
0.00014891663
0.00015890183
0.00016392784
0.00016523025
0.0001648267
0.00016368956
0.00016221592
0.00016089494
0.00015995632
0.00015923161
0.00015862174
0.00015807501
0.00015750121
0.00015695342
0.0001564068
0.00015581444
0.0001550984
0.00015441936
0.00015383985
0.00015335081
0.00015294121
0.00015259144
0.0001523109
0.00015206332
0.00015190535
0.00015161532
0.022769972
0.026005209
0.028977922
0.030316258
0.029713657
0.028019294
0.025726708
0.021419118
0.014419907
0.0076903747
0.0033949588
0.0016070946
0.0014674608
0.0025459476
0.0044535534
0.0066086008
0.0081868598
0.0081670902
0.0061605177
0.0030683904
0.00097708908
0.00033133202
0.00021260906
0.0001915754
0.0001845217
0.0001789607
0.00017384466
0.02063463
0.020315112
0.021985985
0.025378357
0.029205613
0.030845437
0.026095708
0.012922067
0.0029835039
0.00045722404
0.00014196906
0.0001231956
0.00013711408
0.00015090293
0.0001600187
0.00016418852
0.00016507606
0.00016448474
0.00016328278
0.00016180482
0.00016058764
0.0001597132
0.00015902662
0.00015844016
0.00015783941
0.00015728701
0.00015675456
0.00015621927
0.00015563612
0.00015493559
0.000154285
0.0001537315
0.00015326265
0.00015286828
0.00015252934
0.00015225697