/*--------------------------------*- C++ -*----------------------------------*\
  =========                 |
  \\      /  F ield         | OpenFOAM: The Open Source CFD Toolbox
   \\    /   O peration     | Website:  https://openfoam.org
    \\  /    A nd           | Version:  8
     \\/     M anipulation  |
\*---------------------------------------------------------------------------*/
FoamFile
{
    version     2.0;
    format      ascii;
    class       volScalarField;
    location    "100.9663773";
    object      k_0;
}
// * * * * * * * * * * * * * * * * * * * * * * * * * * * * * * * * * * * * * //

dimensions      [0 2 -2 0 0 0 0];

internalField   nonuniform List<scalar> 
9200
(
0.00015420689
0.00015507368
0.00015399982
0.00015594803
0.00015477679
0.00015374124
0.00015697749
0.0001555807
0.00015447775
0.00015354543
0.00015808507
0.00015654523
0.00015524393
0.00015425826
0.00015338292
0.0001593095
0.00015757285
0.00015615231
0.00015499686
0.000154079
0.00015325539
0.00016061605
0.00015869429
0.00015710627
0.00015586574
0.00015479925
0.00015394142
0.00015315023
0.00016200852
0.00015987681
0.00015812901
0.00015676841
0.00015564543
0.00015465047
0.00015382974
0.00015306298
0.00016351721
0.00016114726
0.0001591867
0.00015771872
0.00015652022
0.0001554861
0.0001545318
0.00015373792
0.00015298841
0.00016520394
0.00016255166
0.00016031986
0.00015868341
0.00015742666
0.00015635262
0.00015536532
0.00015443499
0.0001536593
0.00015292343
0.00016715449
0.00016416526
0.00016159853
0.00015972509
0.00015834447
0.00015725703
0.0001562422
0.0001552696
0.00015435167
0.00015359004
0.00015286589
0.00016950704
0.00016607087
0.0001631046
0.00016093472
0.00015935491
0.00015818883
0.00015718178
0.00015616092
0.00015518692
0.00015427682
0.00015352763
0.00015281439
0.00017249083
0.00016840245
0.00016490577
0.00016239101
0.00016055812
0.00015922635
0.00015817277
0.00015714436
0.00015608852
0.00015510993
0.00015420724
0.00015347079
0.00015276783
0.00017640051
0.00017139941
0.00016712559
0.00016414073
0.00016200888
0.00016045949
0.00015928229
0.00015820377
0.00015709716
0.00015601586
0.00015503427
0.00015414169
0.00015341905
0.00015272607
0.0001816415
0.00017540739
0.00016996137
0.00016628331
0.00016373364
0.00016193027
0.00016056665
0.00015938531
0.00015820044
0.00015703578
0.00015593718
0.00015495886
0.0001540798
0.00015337232
0.00015269123
0.00019044576
0.00018089557
0.00017378432
0.00016897269
0.00016580733
0.00016363747
0.00016204814
0.00016071285
0.00015943039
0.00015815536
0.00015695546
0.00015585207
0.00015488409
0.00015402178
0.0001533304
0.00015266483
0.00021558203
0.0001910249
0.0001794016
0.00017251242
0.00016834629
0.00016563843
0.00016373338
0.00016220429
0.0001607904
0.00015940124
0.00015807152
0.00015685837
0.00015576276
0.00015481109
0.00015396801
0.00015329299
0.00015264693
0.00030671641
0.00022537984
0.00019009611
0.0001776747
0.00017157341
0.00016802205
0.00016565439
0.00016385328
0.00016227744
0.00016076376
0.000159307
0.00015795683
0.00015674997
0.00015567225
0.00015474094
0.00015391867
0.00015325968
0.00015263668
0.00060564036
0.00036139829
0.00022695704
0.00018728635
0.00017603356
0.00017095252
0.00016788711
0.00016568092
0.00016387548
0.00016222514
0.00016064466
0.00015916399
0.00015782177
0.00015663648
0.00015558323
0.00015467451
0.0001538737
0.00015322998
0.00015263294
0.0013967262
0.00079940841
0.00037249741
0.00021729937
0.00018356094
0.00017477374
0.00017055712
0.00016775856
0.0001655986
0.00016375674
0.00016205653
0.00016045651
0.00015898964
0.00015767719
0.00015652342
0.0001554978
0.00015461221
0.00015383287
0.00015320393
0.00015263462
0.0030407528
0.0019107637
0.00083872816
0.00033192984
0.00020234917
0.00018046879
0.00017389088
0.00017018998
0.00016751508
0.00016536437
0.0001635019
0.00016179799
0.00016022441
0.00015880121
0.00015753286
0.00015641498
0.00015541713
0.00015455401
0.00015379579
0.00015318297
0.00015264043
0.0056340091
0.0040999102
0.0020200584
0.00069844099
0.00026772616
0.00019107548
0.00017842812
0.00017313779
0.00016971877
0.00016711323
0.0001649786
0.00016313835
0.00016148267
0.00015997414
0.00015861469
0.00015739626
0.00015631351
0.00015534147
0.00015449954
0.00015376182
0.00015316707
0.00015264914
0.0088194178
0.0073493126
0.0042793851
0.0016262584
0.00047825707
0.00022028165
0.00018542066
0.00017694145
0.00017233893
0.00016909404
0.00016655073
0.00016446956
0.00016270684
0.00016114608
0.00015973007
0.00015844263
0.00015727157
0.00015621966
0.00015527051
0.00015444831
0.00015373037
0.00015315549
0.00015265912
0.012013428
0.011124005
0.0075645851
0.0034312302
0.001021376
0.00031139522
0.00019867115
0.00018229468
0.00017561395
0.00017142154
0.00016830998
0.00016585796
0.0001638857
0.0001622529
0.00016082274
0.00015951254
0.00015829193
0.00015715973
0.00015613286
0.0001552036
0.00015439977
0.00015370089
0.00015314724
0.00015266974
0.014749977
0.014744209
0.011391816
0.0061465708
0.0021401159
0.00055405176
0.0002332441
0.00018995139
0.00018002062
0.00017428094
0.0001703684
0.00016740045
0.00016509259
0.00016328404
0.00016182147
0.00016054288
0.00015933292
0.00015816349
0.00015705944
0.00015605196
0.00015513998
0.00015435337
0.00015367284
0.00015314123
0.00015268117
0.0168127
0.017710224
0.015132077
0.0094852921
0.0039538753
0.0010855388
0.00032409759
0.00020447645
0.00018569159
0.00017802686
0.00017288621
0.00016921316
0.00016643468
0.00016432738
0.00016272392
0.00016145448
0.00016032527
0.00015919192
0.00015805437
0.0001569684
0.00015597563
0.00015507881
0.00015430852
0.00015364579
0.00015313634
0.00015269313
0.018181747
0.019814893
0.018303163
0.013008287
0.0063768594
0.0020321588
0.00053095511
0.00023718329
0.0001939738
0.00018279896
0.00017615117
0.00017144744
0.0001680346
0.00016550333
0.00016364216
0.00016226363
0.00016118454
0.00016017897
0.00015908349
0.00015796007
0.00015688411
0.0001559025
0.00015501933
0.00015426468
0.00015361932
0.00015313162
0.00015270392
0.018946944
0.021071631
0.020659186
0.016301203
0.0091763644
0.0034264028
0.00092215135
0.00030855304
0.00020876691
0.00018915587
0.0001803807
0.0001743495
0.0001700424
0.00016693974
0.00016470566
0.00016311388
0.00016195493
0.00016104394
0.00016009468
0.00015899818
0.00015787572
0.00015680406
0.00015583123
0.00015496085
0.00015422144
0.00015359302
0.00015312602
0.00015271294
0.019241904
0.021613241
0.022171107
0.019079433
0.012079094
0.005202834
0.0015505041
0.00044955542
0.00023649967
0.00019920001
0.00018603666
0.00017822242
0.00017267747
0.00016878693
0.00016604208
0.00016412824
0.00016280049
0.000161836
0.00016101788
0.00016004058
0.00015892699
0.00015779663
0.00015672592
0.00015576076
0.00015490277
0.00015417831
0.00015356638
0.00015311827
0.00015271983
0.019205841
0.021612761
0.022948309
0.021208163
0.014850694
0.0072453074
0.0024291326
0.00068572088
0.0002879939
0.00021615574
0.00019510003
0.00018360408
0.00017631506
0.00017124765
0.00016780058
0.00016542818
0.00016381729
0.00016271533
0.00016187729
0.00016103187
0.00016000217
0.00015886111
0.00015771872
0.00015664786
0.00015569024
0.00015484464
0.0001541349
0.00015353894
0.00015310719
0.00015272134
0.01894651
0.021244263
0.023144074
0.022673483
0.017324973
0.0094247752
0.0035441435
0.0010407036
0.00038257592
0.00024670634
0.0002109725
0.0001928384
0.00018162237
0.00017471574
0.00017017271
0.00016715737
0.00016512515
0.00016376348
0.00016280054
0.00016197064
0.00016104887
0.00015996548
0.00015879377
0.00015763902
0.00015656861
0.00015561904
0.00015478611
0.00015409098
0.00015351042
0.00015309276
0.00015271613
0.018500087
0.02063614
0.022922111
0.023539073
0.019404664
0.01161835
0.0048649016
0.0015494148
0.00054631801
0.00031246366
0.00024349792
0.00021087733
0.00019148809
0.00018005493
0.00017347274
0.00016948723
0.00016685189
0.00016509857
0.00016389685
0.0001629594
0.00016205628
0.00016105598
0.00015992071
0.00015872058
0.00015755569
0.00015648731
0.00015554672
0.00015472697
0.00015404627
0.00015348057
0.00015307604
0.0001527049
0.017982757
0.019855118
0.022399364
0.023907684
0.021053788
0.013721127
0.0063441162
0.0022471625
0.00084321008
0.0004716704
0.00033344302
0.00025603693
0.00021360074
0.00019077234
0.00017880453
0.00017266305
0.0001691547
0.00016683181
0.00016526483
0.00016410709
0.00016310779
0.00016211227
0.00016104257
0.00015986249
0.00015863915
0.00015746768
0.00015640348
0.00015547306
0.00015466693
0.00015400064
0.00015344923
0.00015305714
0.00015268935
0.017487409
0.019080687
0.021631104
0.023887706
0.02228158
0.015659162
0.0079223822
0.0031398497
0.0013580123
0.00085424464
0.00060453337
0.00040818131
0.00028161723
0.00021877199
0.00019002994
0.00017765642
0.00017221983
0.00016910357
0.00016700753
0.0001655065
0.00016429998
0.00016320751
0.00016212955
0.00016100378
0.00015978848
0.00015854851
0.00015737455
0.00015631697
0.00015539814
0.0001546059
0.000153954
0.00015341637
0.00015303605
0.00015267104
0.017088048
0.018429389
0.02078482
0.023489663
0.023201088
0.017387806
0.0095420056
0.0041956543
0.002113906
0.0016032229
0.0013255397
0.00091797513
0.00054060328
0.00032229066
0.00022275978
0.00018820797
0.00017666194
0.00017206851
0.00016924451
0.00016725083
0.00016571843
0.00016442649
0.0001632478
0.00016210544
0.00016093826
0.00015969827
0.00015844852
0.00015727635
0.00015622781
0.00015532176
0.00015454386
0.00015390636
0.00015338203
0.00015301283
0.00015265031
0.016834291
0.017974706
0.019982557
0.022817929
0.023741407
0.019066574
0.011153929
0.0053644902
0.003056798
0.0027153762
0.0027123823
0.002284846
0.0014571228
0.00074696015
0.00035505782
0.00021913013
0.00018547894
0.00017604641
0.00017211187
0.00016945078
0.00016744783
0.00016584433
0.00016447269
0.00016322762
0.00016204024
0.00016084689
0.00015959252
0.00015833971
0.00015717341
0.00015613634
0.00015524398
0.00015448088
0.00015385775
0.00015334627
0.00015298762
0.00015262743
0.016749628
0.017740449
0.019314064
0.021992731
0.023856688
0.020583873
0.01293359
0.0065956493
0.0040996419
0.0040435251
0.0046655663
0.0047908969
0.0038328611
0.0022272762
0.00090600483
0.0003432724
0.00020864505
0.00018288313
0.00017577523
0.00017223504
0.00016959344
0.00016753714
0.0001658689
0.00016443829
0.00016314974
0.00016193691
0.00016073181
0.00015947264
0.00015822299
0.00015706635
0.00015604262
0.000155165
0.00015441706
0.00015380823
0.0001533092
0.00015296059
0.00015260264
0.016831649
0.017705268
0.018821252
0.021136637
0.023599487
0.021768265
0.014791016
0.0080051506
0.0051633968
0.0054109048
0.0068321029
0.0081098865
0.0079648267
0.0057846473
0.0027459232
0.00085216088
0.00029234178
0.00019806921
0.00018110565
0.00017570945
0.00017228958
0.0001696068
0.00016750357
0.00016579243
0.00016432786
0.00016301964
0.00016179985
0.00016059589
0.0001593405
0.00015809945
0.00015695579
0.00015594696
0.000155085
0.00015435253
0.00015375791
0.00015327094
0.00015293192
0.00015257616
0.017053317
0.017828371
0.018494818
0.02034797
0.02304991
0.022573834
0.016553228
0.0095837684
0.0062441447
0.0066834357
0.0088659686
0.011494619
0.013096073
0.011591856
0.006917274
0.0025223651
0.00062108731
0.0002413219
0.00019146099
0.00018022004
0.00017563059
0.00017220228
0.00016947631
0.00016734863
0.00016562145
0.00016415056
0.00016284498
0.00016163415
0.00016044234
0.00015919801
0.00015797059
0.00015684216
0.00015584976
0.00015500422
0.00015428743
0.00015370689
0.00015323163
0.00015290181
0.00015254824
0.017375095
0.018041917
0.018290719
0.019672562
0.022318326
0.022990013
0.018133702
0.011235476
0.0074248459
0.0077445875
0.010558633
0.014350868
0.017818163
0.018186574
0.013463403
0.0063239735
0.0017366716
0.00039313238
0.00021332881
0.00018798716
0.00017969429
0.00017543018
0.00017195828
0.00016920461
0.00016708107
0.00016536927
0.00016391794
0.00016263389
0.00016144517
0.00016027443
0.00015904708
0.00015783717
0.00015672611
0.00015575143
0.00015492292
0.00015422194
0.00015365533
0.00015319144
0.00015287045
0.00015251909
0.018261007
0.017740417
0.018144261
0.019102858
0.021507656
0.023036502
0.019457841
0.012902175
0.0086830755
0.0087106892
0.011773675
0.016424588
0.021260345
0.023692532
0.020836167
0.012523755
0.0044568281
0.00092803033
0.00026984741
0.00020212988
0.00018587219
0.00017921064
0.00017508385
0.00017156099
0.0001688024
0.00016671919
0.00016505276
0.00016364228
0.00016239458
0.00016123815
0.00016009532
0.0001588904
0.00015770009
0.0001566083
0.00015565238
0.00015484134
0.00015415622
0.00015360335
0.00015315052
0.00015283803
0.00015248893
0.017981678
0.018397277
0.018077729
0.018611581
0.020755508
0.022760873
0.020468732
0.014517227
0.010007863
0.0096173944
0.012562452
0.017712058
0.023268737
0.027261306
0.027039506
0.020059976
0.0093356163
0.0024023224
0.00044573454
0.00022720382
0.00019697133
0.00018425728
0.00017866355
0.00017459244
0.00017102309
0.00016829286
0.00016628688
0.00016468952
0.00016333559
0.00016213486
0.00016101784
0.00015990798
0.00015872888
0.00015756046
0.00015648938
0.00015555299
0.00015475972
0.00015409045
0.00015355111
0.00015310903
0.00015280475
0.00015245795
0.018158857
0.017735823
0.018375698
0.01830964
0.020019709
0.022239533
0.021135398
0.01600763
0.011382406
0.010494495
0.013122085
0.018087069
0.024117957
0.02897546
0.031091624
0.027109515
0.016068469
0.0054352034
0.0010017032
0.0002755536
0.00021418067
0.00019347538
0.0001829578
0.0001780072
0.0001739671
0.00017037435
0.00016771688
0.00016580926
0.00016429683
0.00016300896
0.00016186164
0.00016078846
0.00015971558
0.00015856393
0.0001574192
0.00015636991
0.00015545361
0.00015467831
0.00015402481
0.00015349875
0.00015306714
0.00015277079
0.00015242633
0.019351333
0.017696072
0.017357098
0.018140075
0.018362721
0.021576193
0.021456818
0.017310026
0.012784706
0.011390113
0.013536145
0.018125497
0.023722984
0.029246195
0.033011077
0.032335108
0.023426892
0.01030547
0.0023706334
0.00041424964
0.00023618979
0.00020794481
0.00019054428
0.00018176171
0.00017722661
0.00017323521
0.00016967544
0.00016712531
0.00016531204
0.00016389018
0.00016267203
0.00016158087
0.00016055406
0.00015951953
0.00015839697
0.00015727716
0.00015625043
0.0001553546
0.00015459732
0.00015395946
0.00015344642
0.000153025
0.00015273631
0.00015239425
0.020898859
0.018740883
0.017186055
0.016817134
0.017657848
0.018177408
0.021459235
0.018363507
0.014173836
0.012350656
0.013920225
0.017954184
0.022971742
0.028157139
0.033150519
0.035345241
0.029974861
0.016644898
0.0050036241
0.00082940899
0.00026342667
0.00022503877
0.00020335556
0.00018780571
0.00018056566
0.0001763335
0.00017243238
0.00016897102
0.00016654372
0.00016482338
0.00016348206
0.00016233257
0.00016129746
0.00016031753
0.00015932177
0.00015822916
0.00015713507
0.00015613141
0.00015525625
0.00015451697
0.00015389455
0.00015339426
0.00015298275
0.00015270149
0.00015236185
0.021222892
0.02024371
0.018183299
0.016607596
0.016109982
0.01692058
0.017715166
0.019139016
0.015479888
0.013400418
0.014390505
0.017772391
0.022069585
0.026638566
0.031739441
0.036257783
0.034805669
0.023528162
0.0091450291
0.0018215687
0.00034939121
0.00023211895
0.00021893045
0.00019929794
0.000185306
0.00017932144
0.00017535217
0.00017159034
0.00016828278
0.00016598316
0.00016435254
0.00016308168
0.00016199646
0.0001610158
0.00016008102
0.00015912382
0.00015806149
0.00015699356
0.00015601326
0.00015515883
0.00015443744
0.00015383023
0.00015334241
0.00015294054
0.00015266646
0.00015232928
0.019641672
0.020847381
0.019642248
0.017671274
0.015958887
0.015243504
0.015943176
0.016961729
0.016642823
0.014530002
0.015029778
0.017760545
0.021308273
0.025059576
0.029661298
0.035246213
0.0376351
0.029927219
0.014650575
0.0037541899
0.00060415858
0.00024056535
0.00022314762
0.00021361913
0.00019539027
0.00018299185
0.00017801873
0.00017431036
0.00017073394
0.00016761948
0.00016544711
0.00016390214
0.00016269461
0.00016166794
0.00016073781
0.00015984646
0.00015892692
0.00015789481
0.0001568532
0.00015589634
0.00015506259
0.0001543589
0.00015376665
0.00015329097
0.00015289848
0.00015263135
0.00015229666
0.017626102
0.019918409
0.02043632
0.019150897
0.017198684
0.015253196
0.014240143
0.01475978
0.015926118
0.015693541
0.015866802
0.018035929
0.020902789
0.02379175
0.027449911
0.03302536
0.038274641
0.035309752
0.021011479
0.0069077234
0.0012125889
0.00028095134
0.00021773309
0.00021613664
0.00020826093
0.00019134674
0.00018078402
0.00017666967
0.00017323821
0.00016988269
0.00016698371
0.000164936
0.00016347255
0.00016232369
0.00016134915
0.00016046538
0.00015961522
0.0001587321
0.00015772978
0.00015671444
0.00015578097
0.00015496774
0.00015428151
0.00015370391
0.00015324008
0.0001528567
0.0001525963
0.00015226411
0.016837425
0.018430585
0.020034888
0.020082761
0.018798335
0.016767251
0.014509902
0.013130768
0.013417382
0.014640008
0.0168803
0.018637812
0.020958795
0.023066347
0.025595427
0.030254885
0.036881274
0.038974706
0.027967579
0.011298071
0.002418134
0.0004093609
0.00021395014
0.00020780213
0.00020810469
0.00020247014
0.00018696962
0.00017867823
0.00017530319
0.00017216571
0.00016905196
0.00016637457
0.00016444925
0.00016306335
0.00016196983
0.000161041
0.00016019976
0.00015938835
0.00015854011
0.00015756697
0.00015657768
0.00015566741
0.00015487447
0.0001542054
0.00015364214
0.00015318981
0.00015281528
0.0001525614
0.0001522318
0.018024472
0.017934758
0.019091586
0.020089353
0.019856746
0.018597343
0.016380781
0.013744682
0.011952446
0.011963936
0.013153219
0.019546758
0.021483992
0.022942178
0.02437222
0.027605817
0.034076414
0.04001756
0.034708246
0.017412008
0.0044584551
0.00072246053
0.00022817154
0.0001964528
0.00019778475
0.00019905
0.00019591919
0.00018277893
0.00017669345
0.000173956
0.00017111957
0.00016825409
0.00016578972
0.00016398598
0.00016267416
0.00016163188
0.00016074364
0.00015994165
0.00015916656
0.00015835154
0.00015740683
0.00015644323
0.0001555559
0.00015478294
0.0001541307
0.00015358141
0.00015314026
0.00015277434
0.0001525268
0.00015219984
0.020725778
0.019269918
0.018996912
0.019687568
0.020195743
0.019820394
0.018548802
0.016033577
0.012961931
0.010741453
0.010446821
0.011586232
0.022414092
0.023331695
0.023792267
0.025509922
0.030728073
0.038566025
0.039343037
0.02504552
0.0081163708
0.0013617103
0.00029057875
0.00019208705
0.00018473636
0.00018663699
0.00018946515
0.00018878821
0.00017899229
0.00017485867
0.00017266319
0.00017012194
0.00016749874
0.00016523224
0.00016354587
0.00016230284
0.00016130928
0.00016045827
0.00015969125
0.00015895028
0.00015816684
0.00015724973
0.00015631137
0.00015544662
0.00015469328
0.00015405747
0.0001535218
0.00015309153
0.00015273401
0.00015249256
0.00015216815
0.023644751
0.02211864
0.020613827
0.020081189
0.020320329
0.02045584
0.020012778
0.018634248
0.015701142
0.012152156
0.0095222003
0.008959159
0.010007095
0.02405018
0.023667031
0.024057728
0.027568704
0.035405389
0.041136981
0.032361798
0.013912397
0.0028338012
0.00045181167
0.00021342779
0.00018067175
0.00017292798
0.00017516488
0.00018007546
0.0001821231
0.0001756912
0.00017319688
0.00017145334
0.00016918954
0.0001667927
0.00016470527
0.00016312632
0.00016194872
0.00016100146
0.00016018562
0.00015944843
0.0001587398
0.00015798633
0.00015709595
0.00015618233
0.00015533973
0.00015460557
0.00015398579
0.00015346343
0.00015304378
0.00015269434
0.00015245844
0.0001521314
0.024884266
0.024955444
0.023665329
0.022084085
0.021261024
0.021089169
0.020947359
0.020435882
0.01880805
0.015336893
0.011296325
0.0083348669
0.0075494119
0.0083271883
0.023713931
0.023056751
0.024969871
0.031541171
0.040158115
0.037937026
0.021122257
0.0058390083
0.00089256962
0.00029331803
0.00021134558
0.00017416857
0.00016155512
0.00016442589
0.00017166984
0.00017629071
0.00017292419
0.00017172008
0.00017034725
0.00016833309
0.00016613934
0.00016420857
0.00016272648
0.00016161124
0.00016070783
0.00015992518
0.00015921451
0.0001585352
0.00015781025
0.00015694573
0.00015605627
0.00015523531
0.00015451989
0.00015391581
0.00015340649
0.00015299703
0.00015265491
0.00015241852
0.00015209383
0.023623661
0.025565654
0.026273713
0.025241347
0.023675153
0.022590411
0.022063933
0.021699612
0.021044216
0.018992824
0.014887223
0.010366854
0.0071714357
0.0061261065
0.0066035917
0.022187829
0.022909488
0.027804208
0.037115251
0.040816086
0.028617183
0.010656099
0.0020324697
0.0004822203
0.00032849009
0.00023310829
0.00017181421
0.0001518773
0.00015534422
0.00016477719
0.00017149651
0.00017069096
0.00017043273
0.0001693573
0.00016755724
0.00016553832
0.00016374076
0.00016234594
0.0001612898
0.00016042778
0.00015967643
0.0001589907
0.00015833645
0.00015763878
0.00015679921
0.00015593326
0.00015513344
0.00015443642
0.00015384776
0.00015335096
0.00015295054
0.00015260543
0.00015237791
0.00015205575
0.021127901
0.023119694
0.025816481
0.027275623
0.026787486
0.025335205
0.024065079
0.023251777
0.022671924
0.021741931
0.019104455
0.014217555
0.0093230794
0.0059570119
0.0047352429
0.0049162689
0.021132336
0.024602024
0.033038882
0.040815776
0.034910114
0.017140622
0.0043594393
0.00096325004
0.00056838924
0.00044750363
0.00027701249
0.00017490011
0.00014477028
0.00014847542
0.00015960298
0.00016776388
0.00016895309
0.00016933369
0.00016848745
0.00016686259
0.00016498599
0.00016329983
0.00016198415
0.00016098373
0.00016016068
0.00015943883
0.00015877659
0.0001581436
0.00015747199
0.00015665647
0.00015581341
0.00015503438
0.00015435544
0.00015378155
0.00015329574
0.00015288943
0.00015255551
0.00015233685
0.00015201721
0.019336283
0.019646353
0.02201306
0.025381487
0.027710025
0.027994557
0.02690443
0.025592582
0.024571756
0.023747525
0.022400902
0.018886606
0.013298139
0.0080961205
0.0047163538
0.0034354847
0.0033701716
0.021930643
0.028877234
0.038468219
0.038816388
0.024365909
0.0083596449
0.002014642
0.0010430594
0.00089885191
0.00065914091
0.0003462856
0.0001833229
0.00014044239
0.00014385769
0.00015603141
0.00016502024
0.00016764377
0.00016841912
0.00016773919
0.00016624318
0.00016447678
0.00016288252
0.00016164041
0.00016069238
0.00015990594
0.00015921185
0.00015857175
0.0001579572
0.00015730984
0.00015651758
0.00015569702
0.0001549384
0.0001542768
0.00015371572
0.00015321886
0.00015282836
0.00015250573
0.00015229531
0.00015197829
0.019575899
0.017325256
0.01766307
0.020224929
0.024147334
0.027373285
0.0286199
0.028146434
0.026987503
0.025855699
0.024753675
0.022717273
0.018308699
0.012024755
0.0066896558
0.0034985471
0.0023002424
0.0020847313
0.02518426
0.034727331
0.039900471
0.030883568
0.014064844
0.0040868534
0.0018583888
0.0016956006
0.0015250695
0.00098622221
0.00043739699
0.000194665
0.00013818666
0.00014114018
0.00015381242
0.00016315215
0.000166707
0.00016768658
0.00016710119
0.00016568832
0.00016400376
0.00016248525
0.00016131401
0.00016041504
0.00015966295
0.00015899499
0.00015837576
0.00015777854
0.00015715234
0.00015638289
0.0001555844
0.00015484533
0.00015419858
0.00015361988
0.00015314267
0.0001527682
0.00015245596
0.00015225336
0.00015193902
0.022124302
0.017339776
0.015103128
0.015243106
0.017835018
0.022125499
0.026161373
0.028446843
0.028790288
0.028002003
0.026881816
0.025376117
0.022618612
0.017186444
0.010347246
0.0051549117
0.0023828562
0.0014063279
0.0011578266
0.030565665
0.038508487
0.03536424
0.020723851
0.0076570865
0.0032110533
0.0028348127
0.0029614812
0.0025606547
0.0014248517
0.00053552773
0.00020491581
0.00013711431
0.00013988409
0.00015272009
0.00016209194
0.00016608634
0.00016711209
0.00016655469
0.00016518545
0.00016355987
0.0001621049
0.00016100418
0.00016015104
0.00015943115
0.00015878776
0.00015818821
0.00015760733
0.0001569998
0.00015625274
0.00015547529
0.00015475275
0.00015407958
0.00015352561
0.00015306842
0.0001527086
0.00015240634
0.00015221101
0.00015189947
0.026793604
0.019598902
0.015220492
0.012830622
0.012640216
0.015055035
0.019462373
0.024098216
0.027351804
0.02860764
0.028399797
0.027343603
0.025496289
0.021875813
0.01536478
0.0082860893
0.0036119737
0.001467068
0.00080129494
0.00060824556
0.035486626
0.03721696
0.026934891
0.012809735
0.0054720069
0.0042760379
0.0048061827
0.0050501515
0.0040331224
0.0019134742
0.00062085046
0.00021186688
0.0001366304
0.00013968585
0.00015254677
0.00016166121
0.00016571035
0.0001666634
0.00016607852
0.00016472218
0.00016313782
0.00016174449
0.00016071014
0.0001598997
0.00015920998
0.00015858971
0.00015800872
0.00015744324
0.00015685253
0.00015612677
0.00015536685
0.00015460734
0.00015396321
0.00015343456
0.00015299556
0.00015264979
0.00015235684
0.00015216831
0.00015185967
0.031801354
0.023652285
0.017567178
0.013354353
0.010730236
0.010106582
0.012160946
0.016401562
0.021330363
0.025338798
0.027501041
0.02800666
0.027126363
0.024872622
0.020221531
0.012771133
0.00599495
0.0022414839
0.00082959349
0.00046358107
0.00034955806
0.036679432
0.031367506
0.018816934
0.0090464019
0.0061274223
0.0067255283
0.0079895646
0.0080253044
0.0057129965
0.0023404448
0.00067474888
0.00020860001
0.00013483165
0.00014017876
0.00015300529
0.00016167394
0.00016551215
0.00016630533
0.00016565191
0.000164286
0.00016273044
0.00016140334
0.00016043106
0.00015966038
0.00015899891
0.00015840038
0.00015783689
0.00015728594
0.00015671005
0.0001560019
0.0001551954
0.00015446547
0.00015385161
0.00015334592
0.00015292441
0.00015259167
0.00015230756
0.00015212529
0.00015181969
0.034527411
0.028352749
0.02133036
0.016068665
0.011899938
0.0089412188
0.0078474201
0.0093997494
0.013224555
0.018104956
0.022566807
0.025638819
0.026805199
0.02601572
0.023199044
0.017450184
0.0095520838
0.0037854021
0.0012236946
0.00047123527
0.00030486369
0.00024926217
0.033445564
0.024325955
0.01387794
0.0087180346
0.0086011297
0.010588185
0.01235791
0.011444127
0.0071584449
0.0025801257
0.00064034008
0.0001888787
0.00013249803
0.00014125426
0.00015388748
0.00016197794
0.00016542939
0.00016600337
0.00016525436
0.00016386512
0.00016233306
0.00016108067
0.00016016616
0.00015943245
0.00015879743
0.00015821936
0.00015767238
0.00015713514
0.0001565694
0.00015581329
0.00015502744
0.00015432991
0.00015374372
0.00015326007
0.00015285485
0.00015253431
0.00015225851
0.000152082
0.00015177956
0.033492462
0.03174232
0.02558498
0.019874061
0.01517573
0.01086276
0.0074817311
0.005945968
0.0069554608
0.010197836
0.014724789
0.019534436
0.023184724
0.024655773
0.023767744
0.020243586
0.013586102
0.0061864248
0.002036484
0.00062656966
0.00030195906
0.00023709173
0.00021188196
0.028260579
0.019045201
0.012315425
0.010698502
0.01254361
0.015554087
0.017153114
0.014511757
0.007876227
0.0024013259
0.00052174892
0.00016371386
0.00013108247
0.00014280946
0.00015502817
0.00016244873
0.00016540292
0.00016572431
0.00016486798
0.00016345209
0.00016194276
0.00016077581
0.00015991466
0.00015921531
0.00015860507
0.00015804623
0.00015751482
0.00015698888
0.00015637712
0.00015562683
0.00015486647
0.00015419942
0.00015364003
0.00015317684
0.00015278692
0.00015247772
0.00015220976
0.00015203846
0.00015173921
0.030206409
0.032308905
0.0291324
0.023862002
0.019312511
0.014789581
0.010076213
0.0062572136
0.0044006841
0.0049345981
0.0075256536
0.011688591
0.016483106
0.020040203
0.021493731
0.020269454
0.016021148
0.0091347274
0.0033568484
0.00095753509
0.00035031801
0.00023315073
0.00020844939
0.00019493745
0.023467325
0.016594462
0.013390551
0.014167082
0.017291774
0.020649732
0.021331998
0.016331758
0.0075270363
0.0019092448
0.00038080054
0.00014303564
0.00013114129
0.00014468399
0.00015629277
0.00016298153
0.00016537902
0.00016544235
0.00016448263
0.00016304253
0.00016157369
0.00016048778
0.0001596758
0.0001590084
0.00015842136
0.00015788061
0.00015736223
0.00015679333
0.00015618604
0.00015544631
0.00015471123
0.0001540747
0.00015354028
0.00015309624
0.00015272062
0.00015242192
0.00015216132
0.00015199462
0.00015169858
0.026487139
0.030657426
0.030719767
0.027349755
0.023322047
0.019520697
0.014629289
0.0093027299
0.00515602
0.0031745317
0.0033700196
0.0054515004
0.0091604431
0.013227424
0.016345657
0.017425096
0.015708791
0.011035528
0.0050776648
0.0015136008
0.00045975162
0.0002435021
0.00020542841
0.00019400494
0.00018482304
0.02070678
0.016662792
0.015972788
0.018163236
0.021872842
0.024909259
0.024167898
0.016601071
0.0063110935
0.0013277461
0.00026384155
0.00013036937
0.00013244331
0.00014670908
0.00015757654
0.000163485
0.00016532157
0.00016514508
0.00016409284
0.00016263262
0.00016122551
0.00016021561
0.00015944889
0.00015881117
0.00015824586
0.00015772038
0.0001571572
0.00015659911
0.00015599984
0.00015527033
0.00015456292
0.00015395547
0.00015344446
0.00015301823
0.00015265596
0.00015236693
0.00015211294
0.00015195066
0.00015165767
0.023971062
0.028220761
0.030422157
0.029562592
0.026824178
0.023892962
0.020138736
0.01434129
0.0083476654
0.0041130978
0.0022293672
0.0022850978
0.0039689891
0.0068218483
0.0099764795
0.012365798
0.012818762
0.010671923
0.0063335003
0.0023009798
0.00064397661
0.00027050661
0.00020613603
0.00019219273
0.00018515719
0.00017809376
0.020030101
0.018196238
0.018951982
0.021865081
0.025676406
0.02810337
0.025637727
0.015357856
0.0046727819
0.00082699335
0.0001868577
0.00012465116
0.00013450752
0.00014875459
0.00015880242
0.0001638852
0.00016521685
0.00016482644
0.00016369429
0.00016222024
0.00016089781
0.00015995837
0.00015923323
0.00015862311
0.00015807621
0.0001575023
0.00015695445
0.0001564079
0.00015581663
0.00015510076
0.00015442147
0.00015384172
0.0001533525
0.00015294278
0.00015259292
0.00015231231
0.00015206467
0.00015190667
0.00015161652
0.023011001
0.026376279
0.029290891
0.030391695
0.029526077
0.027670569
0.025229908
0.02065519
0.013613077
0.0071297824
0.0031259289
0.0015451035
0.0015557656
0.0027616508
0.0047725412
0.0069676602
0.008486854
0.0083092085
0.0061194398
0.0029464477
0.00091629934
0.00031864434
0.00021081474
0.00019130677
0.00018442156
0.00017884126
0.0001737405
0.020667532
0.020148604
0.021676312
0.024947701
0.028680575
0.03029261
0.025695955
0.012893034
0.0030637243
0.00048074305
0.00014521094
0.00012331942
0.00013691692
0.00015073543
0.00015991557
0.00016414473
0.00016506069
0.00016448233
0.0001632857
0.00016180843
0.0001605902
0.00015971511
0.00015902817
0.00015844148
0.00015784056
0.00015728807
0.00015675559
0.00015622037
0.00015563831
0.0001549379
0.00015428706
0.00015373333
0.00015326431
0.00015286982
0.00015253078