/*--------------------------------*- C++ -*----------------------------------*\
  =========                 |
  \\      /  F ield         | OpenFOAM: The Open Source CFD Toolbox
   \\    /   O peration     | Website:  https://openfoam.org
    \\  /    A nd           | Version:  8
     \\/     M anipulation  |
\*---------------------------------------------------------------------------*/
FoamFile
{
    version     2.0;
    format      ascii;
    class       volScalarField;
    location    "100.9663773";
    object      nut;
}
// * * * * * * * * * * * * * * * * * * * * * * * * * * * * * * * * * * * * * //

dimensions      [0 2 -1 0 0 0 0];

internalField   nonuniform List<scalar> 
9200
(
0.023741643
0.017955808
0.018082786
0.015860351
0.016799765
0.023437953
0.014434291
0.016355319
0.023366059
0.02419181
0.012967883
0.015271558
0.023044271
0.024146274
0.027040374
0.011410004
0.013933906
0.022249936
0.024560018
0.027011699
0.027835965
0.010866328
0.012561797
0.021364705
0.025228772
0.027810918
0.027371243
0.028939352
0.011039645
0.011109509
0.019743433
0.026792662
0.029250798
0.02808607
0.02786202
0.02952453
0.010863677
0.009470515
0.017477701
0.028719915
0.030903878
0.029664641
0.028248376
0.027732294
0.030119283
0.0093255141
0.0078006227
0.014191112
0.029049435
0.0301578
0.030954378
0.028966254
0.027564127
0.027597543
0.030739495
0.0073776255
0.0058777952
0.010830226
0.023313959
0.029259212
0.030218029
0.030993409
0.027044347
0.026910818
0.027479945
0.031509959
0.0060634484
0.0046701872
0.0081300217
0.016096025
0.028212675
0.029325981
0.030264652
0.027367919
0.025442144
0.026330853
0.027529688
0.032472957
0.0052501877
0.0038295641
0.0061497939
0.010926665
0.026318154
0.028278249
0.029377033
0.026693367
0.024315452
0.024211629
0.026063475
0.027783312
0.032475154
0.0048496915
0.0032525707
0.0047534679
0.0076196268
0.014618666
0.027104683
0.028326185
0.024592768
0.022144971
0.022396669
0.023544065
0.026030491
0.028258421
0.03247719
0.0048585286
0.002935955
0.0038135553
0.0055380499
0.0091949662
0.016343139
0.022017219
0.020339033
0.019378264
0.019878693
0.021461927
0.023251991
0.026218424
0.028925975
0.032479627
0.0056170825
0.0029046162
0.0032596946
0.004231146
0.0063035374
0.010001454
0.013863429
0.015532737
0.016088949
0.017285178
0.018950938
0.021117223
0.023218626
0.02655214
0.029752791
0.032482853
0.0091099359
0.0033932889
0.0030973628
0.0034532574
0.004624938
0.0067457721
0.0092520239
0.011401731
0.012906644
0.014524042
0.016561996
0.018730241
0.021119647
0.023306691
0.026938412
0.030731907
0.032486974
0.0082771906
0.006067236
0.0035311966
0.0031211941
0.0036304462
0.0048772545
0.0065031058
0.0083257324
0.010102648
0.01192334
0.01407747
0.016571926
0.018943056
0.02127269
0.023405901
0.027313701
0.031868192
0.032491942
0.0079605283
0.0081320245
0.0062799055
0.0033617135
0.003118045
0.0037539833
0.0047951342
0.0061575734
0.0077743749
0.0095458978
0.011713397
0.014337798
0.017115876
0.01937215
0.021406433
0.023409241
0.027644414
0.032333859
0.03249765
0.0096726978
0.0084998559
0.0082103371
0.0053396709
0.0030950358
0.00311864
0.0037089647
0.0046622291
0.0059443287
0.0074937739
0.0095026074
0.012155534
0.015233935
0.018019222
0.019772604
0.021350991
0.023263263
0.027906059
0.032338146
0.032503969
0.013100929
0.010891658
0.0087621193
0.0084063653
0.0040638702
0.0028998923
0.0030456003
0.0036406082
0.0045746003
0.0058197146
0.007551208
0.010027065
0.013318465
0.01672855
0.018980108
0.019884386
0.021038419
0.022963545
0.028069918
0.032342861
0.032510758
0.017740757
0.015002006
0.011379238
0.00862664
0.008448604
0.0032147096
0.0027281926
0.0029686615
0.0035830991
0.0045154677
0.0059096638
0.0080527235
0.011267067
0.015386112
0.01859465
0.01954972
0.019569825
0.020486822
0.022534881
0.028107377
0.032348084
0.032517883
0.022836412
0.020242194
0.015612012
0.010839393
0.0082592679
0.0048453887
0.0027688941
0.0025895889
0.00289385
0.0035348012
0.0045896941
0.0063142024
0.0091657216
0.013610829
0.018535684
0.020128856
0.019388794
0.018859208
0.019755699
0.0220041
0.027994229
0.032353743
0.032525171
0.027625517
0.025770375
0.020846356
0.014574322
0.0095404766
0.0081463211
0.003342806
0.0024994624
0.0024624021
0.0028244583
0.0035686305
0.0048716312
0.0071696526
0.011348097
0.017998182
0.022192809
0.020451704
0.018510261
0.017897844
0.018912214
0.021382932
0.027705919
0.032359718
0.032532531
0.031610375
0.030807347
0.026318066
0.019246096
0.012300222
0.0082125455
0.0052398028
0.0027157302
0.0022810854
0.0023466835
0.0028080113
0.0037363848
0.0054481679
0.0088023648
0.016005875
0.026331961
0.024274196
0.019333193
0.017206107
0.016817515
0.018014442
0.02068301
0.027238146
0.032365874
0.032539949
0.034608657
0.034875102
0.031328893
0.02423164
0.015987919
0.0096611768
0.007577263
0.0034615392
0.0023572878
0.002093064
0.0022719622
0.0028820603
0.0040882684
0.0064800688
0.01200252
0.025078068
0.026442361
0.022621398
0.017368273
0.015757801
0.015709887
0.01711027
0.019938505
0.026602626
0.032372067
0.032547371
0.036648496
0.037825594
0.035453073
0.028985056
0.020087682
0.01206421
0.0077030172
0.0053505215
0.0027552362
0.0020798591
0.0019496483
0.0022676762
0.0030769196
0.0046832412
0.0081730688
0.018889404
0.025176012
0.026517474
0.018762217
0.015255004
0.014337679
0.014648102
0.016229672
0.01916503
0.025760916
0.03237817
0.032554618
0.037865384
0.039722124
0.038539588
0.03313698
0.024172042
0.014955219
0.0086846974
0.0066251484
0.0037534728
0.0023566301
0.0018623961
0.0018716289
0.00235426
0.0034039696
0.0055095944
0.010575584
0.02390366
0.025253359
0.021165129
0.015197855
0.013347368
0.013051517
0.013675085
0.015389402
0.018349851
0.024658414
0.032384044
0.032561601
0.038434522
0.040728742
0.0406384
0.036509797
0.027948688
0.017983062
0.010179398
0.0063678346
0.0059548464
0.0031371012
0.0020736978
0.0017136702
0.0018731154
0.0025218267
0.0038024761
0.0063704575
0.012707901
0.02397476
0.021122998
0.014827834
0.012519558
0.011769484
0.011943255
0.012801731
0.014599671
0.017519875
0.023400995
0.032389551
0.032568264
0.038533749
0.041041363
0.041884578
0.039071845
0.031262063
0.020930741
0.011897636
0.0065624838
0.0050823626
0.0049561036
0.0028461502
0.0018904833
0.001644886
0.0019348808
0.0027104511
0.0041437587
0.0069293817
0.011855459
0.014926492
0.013056349
0.011353894
0.010603883
0.010515446
0.011007684
0.01202365
0.013866148
0.016709675
0.022085596
0.031058964
0.03257427
0.038307458
0.040855737
0.042442127
0.040880456
0.034055508
0.023686684
0.013692112
0.0070461474
0.0044664996
0.0043902495
0.0048082932
0.0027303218
0.0017985838
0.0016361616
0.0020088168
0.0028625633
0.0043387118
0.0067243813
0.0091716276
0.0099916368
0.009607669
0.0092766866
0.0092335602
0.009528287
0.010218335
0.011335409
0.013180296
0.015917145
0.020764329
0.028129769
0.03257945
0.037800572
0.040323341
0.042477961
0.042036688
0.036329963
0.026205782
0.015508689
0.0078108742
0.0043214417
0.0035599138
0.0038738597
0.0048275051
0.0027396307
0.0017634267
0.0016136524
0.0020774685
0.0029502918
0.0042877559
0.0058306109
0.0070266329
0.0075639737
0.0077537475
0.0079290646
0.0082314715
0.0087423262
0.0095532507
0.010727859
0.012540837
0.015152726
0.019496505
0.02556022
0.029893914
0.037155192
0.039513229
0.042124735
0.042656018
0.038120382
0.028472022
0.017332441
0.0088633408
0.0047564909
0.0034977063
0.003209938
0.0034712297
0.0044089406
0.0028094218
0.0016557553
0.0016075755
0.0021231837
0.0029444877
0.0039346707
0.004896082
0.0056869241
0.0062122086
0.0066068893
0.0069989677
0.007477566
0.0081083806
0.0089914055
0.010191594
0.01195592
0.014430111
0.018306881
0.023330719
0.026308442
0.036494163
0.038615049
0.041422715
0.04286898
0.039476104
0.030486654
0.019146879
0.010154566
0.0057692772
0.0043458332
0.0036154544
0.0031522013
0.0032322637
0.0040986741
0.0027588933
0.0015192009
0.0016123196
0.002130122
0.0027926465
0.0034922493
0.0042084078
0.0048423058
0.0053581235
0.005830023
0.0063256005
0.0068942372
0.0075935619
0.0085111888
0.0097153582
0.011422264
0.013753194
0.017211193
0.021396338
0.02354395
0.035918878
0.03776764
0.040518682
0.042668028
0.040559728
0.032260106
0.02093304
0.011592206
0.0071528853
0.0059481245
0.0052022837
0.0041945381
0.003363978
0.0031951396
0.0039689285
0.00235238
0.0014042956
0.0016109481
0.0020642341
0.0025704069
0.0031358953
0.0037255869
0.0042629267
0.0047661015
0.0052765638
0.0058200853
0.0064346427
0.0071678477
0.0080986457
0.0092907691
0.010934824
0.013125185
0.016213739
0.019732064
0.021345568
0.035498217
0.037065376
0.039535383
0.042107726
0.041306831
0.034031037
0.022674381
0.013093083
0.0086703894
0.0079153064
0.0076407056
0.0066320501
0.0051245562
0.0038637765
0.0032611874
0.0040180247
0.0018838213
0.0013272263
0.0015794167
0.0019491185
0.0023789138
0.0028678021
0.0033611406
0.0038469933
0.0043446412
0.0048674174
0.005430726
0.0060659232
0.0068109431
0.0077419503
0.0089130826
0.010491087
0.012545096
0.015313439
0.018299106
0.019565483
0.035262232
0.036546641
0.038574793
0.04128034
0.041632359
0.03568581
0.024648849
0.014601545
0.010162077
0.0098990531
0.010423536
0.01003446
0.0084575037
0.0063415993
0.0042541239
0.003266476
0.0042188926
0.0015004429
0.0012725908
0.0015192832
0.0018433202
0.0022290044
0.0026474356
0.0030831809
0.0035440703
0.004034266
0.0045564785
0.0051251116
0.0057645379
0.0065100629
0.007430092
0.0085747752
0.010087162
0.012012955
0.014504924
0.017068628
0.018102999
0.035202228
0.036196917
0.037697822
0.04029038
0.041565263
0.037034557
0.026719329
0.016328471
0.011545622
0.011695566
0.013093412
0.013805228
0.012935493
0.010475229
0.007082743
0.0041566787
0.0032026768
0.0027753712
0.0012541206
0.0012251856
0.0014600241
0.0017579643
0.002097459
0.0024694874
0.0028785668
0.0033227057
0.0038008776
0.0043156921
0.0048785056
0.0055150064
0.0062534587
0.0071572057
0.0082718276
0.0097198804
0.01152625
0.013782308
0.01600937
0.016885513
0.035275314
0.035975967
0.036915707
0.039230623
0.041153807
0.038044149
0.028682388
0.018228972
0.012869109
0.013209227
0.01537813
0.017306916
0.017807382
0.015828464
0.011538113
0.0067946868
0.003582046
0.0032274806
0.0019047411
0.0011150698
0.0011847875
0.0014099804
0.0016786531
0.0019856909
0.002336513
0.0027281219
0.003157243
0.0036226576
0.0041254255
0.0046768341
0.0053024341
0.0060310908
0.0069168097
0.0079996849
0.0093860816
0.011082856
0.013137382
0.015095143
0.015860218
0.03542435
0.035808949
0.036200355
0.038168787
0.040467312
0.038702038
0.030482338
0.020177739
0.014266277
0.014380257
0.017173185
0.020161656
0.022143715
0.021424426
0.017180486
0.010970993
0.0055523271
0.0029191041
0.0034323909
0.0014421055
0.001034544
0.001152054
0.0013610699
0.0016086471
0.0019018896
0.0022399094
0.0026183802
0.0030335234
0.0034846051
0.0039729441
0.0045133821
0.0051228508
0.0058378525
0.0067034171
0.0077545245
0.0090828506
0.010679913
0.01256293
0.014303207
0.014988965
0.035605753
0.035572761
0.035498456
0.037106437
0.039589393
0.039011803
0.032069632
0.022141582
0.015723862
0.015386099
0.01844308
0.022256916
0.02544057
0.02622168
0.02308847
0.016341791
0.0089608506
0.0038844024
0.0026069601
0.0025985997
0.0011815698
0.00098386257
0.0011204522
0.0013169363
0.0015568805
0.0018431917
0.0021722198
0.0025393902
0.0029406818
0.0033755271
0.0038495022
0.0043742642
0.0049701307
0.0056689394
0.0065136185
0.0075335722
0.0088075655
0.010314426
0.012051097
0.013614429
0.014241898
0.034744744
0.035278227
0.03563878
0.036044499
0.038638169
0.038992832
0.033402916
0.024080723
0.017260453
0.01630875
0.019251652
0.023661437
0.027637972
0.029728379
0.028237788
0.022206031
0.013557698
0.0061689687
0.0025517177
0.0026539895
0.0019061607
0.0010192365
0.00094645833
0.0010917745
0.0012854133
0.0015233462
0.0018057696
0.0021282945
0.0024839733
0.002870001
0.0032874611
0.0037456227
0.0042537567
0.0048363159
0.0055194479
0.0063439444
0.0073339907
0.0085577271
0.0099834293
0.0115951
0.013013016
0.013597125
0.034965519
0.033880392
0.034757071
0.035543324
0.037589678
0.038686779
0.034453328
0.025953229
0.018895351
0.017220915
0.019826396
0.024263479
0.028921331
0.031963596
0.032100989
0.027669403
0.018914202
0.0096013739
0.0035143267
0.0020515535
0.0027609061
0.0015013751
0.00091400403
0.00091966263
0.0010730441
0.0012683979
0.0015070696
0.001787547
0.002102588
0.0024459275
0.0028155709
0.0032157972
0.0036570125
0.0041509513
0.0047191711
0.0053870474
0.0061919909
0.0071537094
0.0083311136
0.0096838846
0.011188374
0.012485837
0.013036811
0.036500375
0.033842273
0.03286651
0.033995647
0.035219529
0.038156534
0.035206017
0.027712814
0.020638977
0.018217447
0.020280664
0.024548952
0.029224856
0.033125406
0.034623233
0.032096996
0.024374518
0.013938459
0.0055214477
0.0019805625
0.0020221347
0.0027126912
0.0012370058
0.00084483957
0.00090504826
0.0010660692
0.0012658025
0.0015071017
0.0017849056
0.0020907594
0.0024199624
0.002772816
0.0031557125
0.0035813131
0.0040603037
0.0046154473
0.0052690753
0.0060555163
0.0069906087
0.008125562
0.0094129741
0.010825384
0.012022173
0.012547391
0.037496966
0.035387811
0.032658937
0.031688403
0.032973046
0.034618917
0.03566291
0.029307506
0.022471831
0.019390772
0.020771318
0.024659511
0.029177257
0.033247622
0.035937111
0.035260948
0.029305054
0.018816245
0.0084614051
0.0026259324
0.0015363717
0.0020407524
0.002153596
0.0010538429
0.0008026111
0.00090160987
0.0010711667
0.0012774739
0.0015209816
0.0017943076
0.0020890948
0.0024024627
0.0027381886
0.0031042093
0.0035144341
0.0039803892
0.0045233825
0.0051635445
0.0059327339
0.0068430799
0.0079392251
0.0091681557
0.010501179
0.011612902
0.012117346
0.035870328
0.036775688
0.03427313
0.031418069
0.030356897
0.031691641
0.033714253
0.030701909
0.024342368
0.02080514
0.021463245
0.0248212
0.028977141
0.032911601
0.036127461
0.037204136
0.033312791
0.023779709
0.012180305
0.004065455
0.0014056362
0.0014626723
0.002000562
0.001793674
0.00092669468
0.00078182711
0.00090986107
0.0010899372
0.0013030306
0.001546833
0.0018127359
0.0020936408
0.0023895853
0.0027078201
0.003058617
0.0034547667
0.0039092175
0.0044409811
0.0050689404
0.0058221766
0.0067095591
0.0077704807
0.0089472012
0.010211147
0.011249849
0.011737902
0.031881193
0.035893609
0.035995825
0.033183938
0.030142566
0.028897296
0.03017399
0.03249916
0.026195351
0.022471489
0.022485402
0.025250169
0.028899362
0.032374713
0.035614388
0.037948785
0.036359566
0.02840918
0.01647076
0.0063112171
0.0017182996
0.0010855155
0.0014122927
0.0019058365
0.0015455432
0.00083926374
0.00078025989
0.0009319529
0.0011228666
0.0013412062
0.0015820683
0.0018368327
0.0021012092
0.0023791245
0.0026804146
0.0030167241
0.0034012803
0.0038451235
0.0043670649
0.0049839906
0.0057225398
0.0065889297
0.0076180141
0.008747526
0.009950316
0.010926512
0.011402853
0.027977412
0.032859955
0.035799787
0.035236574
0.032147814
0.028869218
0.027344112
0.028457209
0.030984916
0.024345753
0.02389459
0.026092573
0.029153497
0.031927597
0.034670305
0.03763785
0.038325507
0.032674352
0.021054523
0.0093013599
0.0025590644
0.00092608765
0.0009907286
0.0013189994
0.0017792992
0.0013606338
0.00078358084
0.00079781905
0.0009687219
0.0011693612
0.0013899803
0.001623388
0.001863148
0.0021088226
0.0023689544
0.0026544604
0.0029781961
0.0033522197
0.003787277
0.0043006738
0.0049076252
0.0056329265
0.0064802137
0.0074799236
0.0085657083
0.0097152322
0.010640489
0.011121645
0.026351612
0.029656527
0.033658613
0.035661385
0.034553592
0.031195994
0.027635784
0.025735145
0.026585966
0.029198101
0.025664681
0.0273856
0.029825648
0.031756888
0.033619402
0.036485469
0.038929802
0.036327126
0.026012189
0.012872746
0.0039881608
0.0010058739
0.00072465264
0.00090087894
0.0011957949
0.0016406168
0.0012167289
0.00075759575
0.00083353572
0.0010203245
0.00122837
0.0014465572
0.0016672126
0.0018882348
0.0021142902
0.0023571233
0.0026288769
0.0029418241
0.0033071706
0.0037349116
0.0042408479
0.0048391268
0.005552566
0.0063818406
0.0073533825
0.0084000715
0.0095076594
0.0103912
0.010883629
0.027705732
0.02841512
0.031219997
0.03433385
0.035541711
0.033985389
0.030355472
0.026466556
0.024103858
0.02460419
0.027177443
0.02905978
0.03087063
0.031893144
0.032686515
0.034837262
0.03822093
0.038601429
0.031091141
0.01746435
0.0060171384
0.001372852
0.00059226021
0.00063024139
0.00079335537
0.0010641196
0.0015035515
0.0011122176
0.00075969431
0.00088656745
0.0010868486
0.0012980859
0.0015073228
0.0017100172
0.0019093207
0.0021159378
0.0023430818
0.0026032161
0.0029071676
0.0032657762
0.0036873573
0.0041871603
0.0047779373
0.0054800575
0.0062913337
0.0072376594
0.0082555658
0.0093302987
0.010167515
0.010667873
0.030977525
0.029903604
0.030477852
0.032689199
0.03496108
0.035500324
0.033558233
0.029631454
0.025361727
0.022478544
0.022548142
0.025054955
0.032141441
0.032231
0.031925568
0.033014019
0.03647772
0.039281745
0.035189585
0.022924618
0.009265757
0.0020914319
0.00059204643
0.00047558284
0.00054076508
0.00068315278
0.00093991099
0.0013792491
0.0010417676
0.00078883648
0.00095730253
0.0011677939
0.0013753585
0.0015679597
0.001747539
0.0019241606
0.0021128727
0.0023267397
0.0025770345
0.002874237
0.0032273834
0.0036443381
0.004139188
0.0047227836
0.0054131856
0.0062085851
0.0071394349
0.0081372826
0.0091680826
0.0099512427
0.010456114
0.033447257
0.032956056
0.032141216
0.032508043
0.034101437
0.035605783
0.035578588
0.033269391
0.028994289
0.024294622
0.020870004
0.020517478
0.022882686
0.032593759
0.031242304
0.031198528
0.034074493
0.03843405
0.037883104
0.02817226
0.013813904
0.0036467218
0.0007444945
0.00042525068
0.00040545636
0.00045485599
0.00058359823
0.00083293364
0.001276363
0.00099901094
0.00084539169
0.0010467766
0.0012612183
0.0014552039
0.0016231778
0.0017761283
0.0019311799
0.0021046737
0.002307584
0.0025507025
0.0028427743
0.0031921614
0.0036056958
0.0040958355
0.0046717267
0.0053522711
0.0061409395
0.0070646995
0.0080254505
0.008997732
0.0097420318
0.010270883
0.032803444
0.034565816
0.034815596
0.034314084
0.034476258
0.03548423
0.036310541
0.035781136
0.033077081
0.028378947
0.023218408
0.019308865
0.018546652
0.020504294
0.030469323
0.029399705
0.031362127
0.036330399
0.038950025
0.032648705
0.018959729
0.0063959421
0.0012302337
0.00048895134
0.00038403353
0.0003483839
0.00038112328
0.00050168709
0.00074775735
0.0011971351
0.00098158019
0.00093166551
0.0011552209
0.001362864
0.0015312039
0.0016676988
0.0017938107
0.0019305381
0.0020912912
0.0022861883
0.0025241444
0.002812988
0.0031599959
0.0035704351
0.004055403
0.0046253945
0.0053048858
0.0060941821
0.0069905186
0.0078892534
0.0088437139
0.0095820696
0.010101643
0.02942933
0.032685486
0.035402351
0.036394233
0.036294892
0.036333281
0.036834108
0.037073555
0.036063367
0.032896712
0.027700969
0.022069258
0.017745736
0.016474898
0.017944885
0.027515227
0.028561145
0.033363245
0.038396018
0.035871577
0.024215325
0.010199968
0.0023724267
0.00069544012
0.00050524885
0.00037748334
0.00030612181
0.00032375883
0.00043939444
0.00068471299
0.0011410494
0.0009964987
0.0010485182
0.0012805579
0.0014651377
0.0015957292
0.0016976778
0.0017999501
0.0019220119
0.0020732777
0.0022629912
0.0024980443
0.0027851814
0.0031301668
0.0035371904
0.0040187519
0.0045915262
0.0052762634
0.0060442772
0.0068824234
0.0077768253
0.0087384108
0.0094308564
0.0099364565
0.025416858
0.027990844
0.032112226
0.035745038
0.037585599
0.037978934
0.037989332
0.038099822
0.037835059
0.036330907
0.032627822
0.026787827
0.020759969
0.016047227
0.01432451
0.015256738
0.025740033
0.02994665
0.036427953
0.037555488
0.028973781
0.014859674
0.0043975874
0.0011830005
0.00077366158
0.00060816045
0.00039730703
0.00027970851
0.00028270238
0.00039542883
0.00064154239
0.0011055899
0.0010543465
0.0011958638
0.0014158877
0.0015567797
0.0016414618
0.001711284
0.0017953068
0.001905739
0.0020515754
0.0022388001
0.0024727557
0.00275868
0.0031015681
0.0035069606
0.003993768
0.0045736768
0.0052421687
0.0059584173
0.0068049102
0.0077220672
0.0086572935
0.0092702879
0.0097898644
0.022879113
0.023035362
0.026116372
0.030965627
0.035485417
0.038210106
0.039199837
0.039328481
0.039178407
0.038481008
0.036461809
0.032012854
0.025583984
0.019168207
0.014198167
0.012139444
0.012538053
0.026419595
0.033390576
0.037640319
0.032692089
0.019919615
0.0074843223
0.0021160395
0.0012452419
0.0010700105
0.00077671218
0.00043964561
0.00026627513
0.00025546438
0.00036668594
0.00061485697
0.0010877431
0.0011667494
0.0013706236
0.0015464699
0.0016251807
0.0016642975
0.0017093904
0.0017793589
0.0018835859
0.0020275652
0.002214396
0.002448001
0.0027327833
0.0030753743
0.003487429
0.0039820841
0.0045493565
0.0051720674
0.0059012087
0.0067913595
0.0076991742
0.0085382404
0.0091345311
0.0096497443
0.022992545
0.019982811
0.020405937
0.023806095
0.029238241
0.034563911
0.038167692
0.039829284
0.040210611
0.039933239
0.03887184
0.036191984
0.031000077
0.023938393
0.017242296
0.012212594
0.010006051
0.0099602275
0.029721113
0.036269869
0.035017243
0.024767767
0.011569396
0.0037497788
0.00194535
0.0017768696
0.0015384404
0.0010003498
0.00049436093
0.00026065227
0.00023829328
0.00034971471
0.00060121785
0.0010851698
0.0013447789
0.0015580466
0.0016505802
0.0016611376
0.0016644522
0.0016916704
0.0017541733
0.0018577414
0.0020022374
0.0021897005
0.0024232617
0.0027088443
0.0030588369
0.0034790951
0.0039636785
0.0044923953
0.0051299037
0.0059140134
0.0068133767
0.0076158524
0.0084467976
0.0089976423
0.0095240644
0.02590225
0.019794988
0.017159909
0.017624482
0.021158281
0.026986991
0.032982025
0.037399948
0.039756141
0.040503143
0.04022855
0.038782822
0.035440903
0.02938951
0.021752905
0.014975418
0.010162442
0.008083772
0.0077980241
0.033718787
0.035839284
0.028798158
0.01628368
0.0063431746
0.0029668351
0.0026625906
0.0026262597
0.0021650201
0.0012509766
0.00054679588
0.00025760526
0.00022807632
0.00034164181
0.00059998545
0.0011006594
0.0015876223
0.0017230492
0.0017077176
0.0016626446
0.0016416687
0.0016604003
0.0017242476
0.0018297128
0.0019759811
0.0021645509
0.0023999929
0.0026934778
0.003051897
0.003463934
0.003916215
0.0044576476
0.0051621983
0.0059657797
0.006760743
0.0075655912
0.0083489498
0.0088779219
0.0094065029
0.030488211
0.022334807
0.016996659
0.014581118
0.014883602
0.018326923
0.024325061
0.030798715
0.035902437
0.038916548
0.040120316
0.039922666
0.038117177
0.033999831
0.027008001
0.01898765
0.012449336
0.0082125478
0.0066340132
0.0064429043
0.035266072
0.031603847
0.021006641
0.0099647444
0.0045425414
0.0036672928
0.0038922023
0.0037759692
0.0028846585
0.0014831648
0.00058418064
0.00025454413
0.00022251618
0.00034193571
0.00061013021
0.0011302481
0.0018499028
0.0018187636
0.0017091518
0.0016293872
0.001600079
0.0016229587
0.001691228
0.0018001038
0.0019489474
0.0021405527
0.0023844591
0.0026865793
0.0030380623
0.0034237963
0.0038862685
0.0045014423
0.0052321361
0.0059363464
0.0067437029
0.0075014254
0.0082634015
0.0087619958
0.0093007223
0.033555173
0.026981452
0.019387597
0.014766013
0.012415401
0.012359523
0.015479955
0.021399108
0.028119745
0.033727277
0.03732828
0.03908754
0.038952557
0.036684188
0.031646675
0.023750102
0.01573339
0.0098769943
0.0066564174
0.0060002573
0.0063199821
0.033054085
0.025095546
0.014305166
0.0069728602
0.0048749985
0.005139341
0.0055929209
0.0051566238
0.0035656797
0.0016535776
0.00059822828
0.00024163102
0.00021866526
0.00034835865
0.00062842293
0.0011702902
0.0020208689
0.0018156314
0.0016552504
0.0015704627
0.0015510773
0.0015823841
0.0016562693
0.0017696195
0.0019229074
0.0021235386
0.002376574
0.0026728356
0.0030029302
0.0033957382
0.0039378524
0.0045817995
0.0052189487
0.0059415431
0.0067102284
0.0074464598
0.0081790179
0.0086589009
0.0092029801
0.033253623
0.031158206
0.023780064
0.017248729
0.013195623
0.010716082
0.010155097
0.012755924
0.018365173
0.025089378
0.030992223
0.035257258
0.037419519
0.03715097
0.03426414
0.028210996
0.019693377
0.012280779
0.0076250571
0.0058897822
0.0064262542
0.0075314627
0.028132718
0.018750788
0.010346784
0.0065632524
0.0063365039
0.0072353651
0.0076909951
0.0065655597
0.0040668341
0.001698701
0.0005420549
0.00021474453
0.00021697728
0.00035937941
0.00065250619
0.0012178589
0.0019984333
0.0017199378
0.0015676136
0.0015043214
0.001499358
0.0015395839
0.0016206892
0.0017402224
0.0019031956
0.0021136583
0.0023617595
0.0026410899
0.0029756501
0.0034513724
0.0040229772
0.0045793154
0.0052393111
0.0059296035
0.0066811791
0.0073910484
0.008103794
0.0085610387
0.0091153068
0.030029472
0.032510111
0.028473534
0.021343925
0.015961941
0.012199007
0.0094143703
0.0082868817
0.010256777
0.015374952
0.021870633
0.028143149
0.03280375
0.034960694
0.034358602
0.030693881
0.023692443
0.015231324
0.0091231708
0.0061600677
0.0061837501
0.0078010471
0.0095293185
0.022699454
0.014322018
0.0090375719
0.0077128228
0.0085679327
0.0098317926
0.0099166221
0.0077294692
0.004195641
0.001513951
0.00043061754
0.00018583079
0.00021881469
0.00037373502
0.00068055181
0.0012708088
0.0018177759
0.0015847603
0.0014763119
0.0014371706
0.0014458563
0.001497095
0.00158663
0.0017167723
0.0018904288
0.0020968524
0.0023317473
0.0026136357
0.0030331287
0.0035378685
0.0040273806
0.004609391
0.0052424272
0.0059205095
0.0066514884
0.0073396687
0.0080308595
0.0084732437
0.009037164
0.025775245
0.030952927
0.03115381
0.026086473
0.019896507
0.015348396
0.011537854
0.0083523735
0.0067127121
0.0080530166
0.012555626
0.018927832
0.025327332
0.029767046
0.031654633
0.030492868
0.025980553
0.018465181
0.011057903
0.0067983934
0.0058967477
0.0075109459
0.0065386381
0.01169139
0.018371965
0.012312206
0.0096330047
0.0098088812
0.011338139
0.012613046
0.011823319
0.0082344527
0.0038370633
0.0011763554
0.00031098844
0.00016429473
0.00022423047
0.00039024393
0.00071124554
0.0013276672
0.0016073551
0.0014575109
0.0013882709
0.0013702248
0.0013944123
0.001457126
0.0015587331
0.0017004501
0.00187095
0.0020671476
0.0023034822
0.0026707938
0.0031186026
0.0035464467
0.0040630806
0.0046225032
0.0052473128
0.0059094401
0.0066219179
0.0072893283
0.0079653796
0.008393696
0.0089682653
0.022027999
0.027998114
0.031140208
0.029637581
0.024458885
0.019335442
0.015064601
0.010933604
0.0073700698
0.0053779034
0.0061881634
0.010230583
0.0164525
0.02223294
0.026192462
0.027531411
0.025655613
0.020474478
0.013337949
0.0078139367
0.0058167463
0.0069230094
0.0053530956
0.0047637361
0.0097481317
0.016044192
0.012305627
0.011383208
0.012484662
0.014323426
0.015046517
0.01296891
0.0079686801
0.0031207101
0.0008091166
0.00021553232
0.00015277278
0.00023224014
0.00040798116
0.0007437259
0.0013876668
0.0014325734
0.0013428311
0.0013049608
0.0013083229
0.0013472521
0.0014237305
0.0015378263
0.0016776039
0.0018403102
0.0020375728
0.0023587654
0.0027533708
0.0031295266
0.0035851247
0.0040822453
0.0046367937
0.0052492317
0.0058969487
0.0065914634
0.0072429091
0.0079070062
0.0083230259
0.008907761
0.019805057
0.02512983
0.029541658
0.030955578
0.028438924
0.023737033
0.019276922
0.014740027
0.010167385
0.0063673138
0.0042476525
0.0047837273
0.0085494617
0.013996378
0.018949264
0.02219382
0.022778263
0.02022909
0.014962305
0.0092161521
0.0060490136
0.0063198861
0.0048661384
0.0039979055
0.004140181
0.0089835991
0.015615813
0.013632157
0.013826612
0.015449118
0.017053219
0.016834934
0.013257137
0.0070232104
0.0022642703
0.0005008586
0.00015448455
0.00014930781
0.00024173036
0.00042638548
0.00077766122
0.0013752392
0.0012875503
0.0012413855
0.0012317515
0.0012530225
0.0013075343
0.0013976539
0.0015111761
0.0016451211
0.0018091907
0.0020898759
0.0024370601
0.0027650116
0.0031693372
0.0036077325
0.0041021611
0.00464757
0.0052486817
0.0058816829
0.0065649212
0.007201941
0.0078552393
0.0082590148
0.008856033
0.019275299
0.023383086
0.027749109
0.030706218
0.030802693
0.027874973
0.023681415
0.019223316
0.014082148
0.0091277799
0.0053162833
0.0033398929
0.0038032283
0.0070556669
0.011607724
0.015607444
0.017979947
0.017790906
0.014899005
0.010356143
0.0066556404
0.0059293117
0.0048116397
0.0033879884
0.0035073474
0.0040009003
0.0092671378
0.016609284
0.015837932
0.016652324
0.018265116
0.019280565
0.017854918
0.012677095
0.005628461
0.0014641261
0.00029104585
0.00012251505
0.00015067667
0.00025188658
0.00044527241
0.00081313165
0.0012042711
0.0011693397
0.001157133
0.0011684207
0.0012063885
0.0012758551
0.0013671328
0.0014764415
0.0016123787
0.0018577572
0.0021630632
0.0024481752
0.0028044489
0.0031935505
0.0036308385
0.0041181975
0.0046553118
0.0052442141
0.0058693656
0.0065401887
0.0071647518
0.0078073584
0.0082035276
0.0088120353
0.020194102
0.023129434
0.026790259
0.030110654
0.031800436
0.030960456
0.027883639
0.023772736
0.018728597
0.012929529
0.0078101786
0.0042422683
0.0024766328
0.003043308
0.0057762215
0.0093677679
0.01237683
0.013867091
0.013123247
0.010429856
0.0072591579
0.0058575058
0.0053380761
0.0029998227
0.0029190441
0.003386762
0.004219026
0.01088252
0.018688091
0.018488097
0.019395121
0.020680356
0.020862248
0.018047189
0.0113246
0.0040877766
0.00085347261
0.00017399205
0.00010838532
0.00015443631
0.00026231568
0.00046474048
0.00085032548
0.0010772064
0.0010767757
0.0010866743
0.0011156347
0.0011688767
0.0012413634
0.0013297257
0.0014419884
0.0016567059
0.0019253753
0.0021727817
0.0024860525
0.0028287964
0.0032180918
0.0036498528
0.0041308409
0.0046585562
0.0052417449
0.0058570256
0.0065188518
0.0071297107
0.0077662854
0.0081545089
0.0087766573
0.022372768
0.024368808
0.02716058
0.030143188
0.032381124
0.032944915
0.031364686
0.027994868
0.023420539
0.017504412
0.011273345
0.00620007
0.0029836748
0.0018167342
0.0025638005
0.0047525421
0.0073977725
0.0094707392
0.010242968
0.0093259818
0.0073684452
0.0059944962
0.0062913079
0.0029143866
0.0024998583
0.0028280949
0.0035512954
0.0047132918
0.014278896
0.021242308
0.021083747
0.021766019
0.022535515
0.02172104
0.017429061
0.0094144332
0.0026987934
0.00047050971
0.00011706085
0.00010319811
0.00015925521
0.00027296167
0.0004850081
0.00088965326
0.00098265006
0.0010020325
0.0010290573
0.0010730718
0.0011305772
0.0012012553
0.0012936884
0.0014818737
0.0017185917
0.0019331129
0.0022083224
0.002509358
0.0028534437
0.0032383952
0.003665295
0.0041386868
0.0046629391
0.0052385196
0.0058459363
0.0064982215
0.0070990556