/*--------------------------------*- C++ -*----------------------------------*\
  =========                 |
  \\      /  F ield         | OpenFOAM: The Open Source CFD Toolbox
   \\    /   O peration     | Website:  https://openfoam.org
    \\  /    A nd           | Version:  8
     \\/     M anipulation  |
\*---------------------------------------------------------------------------*/
FoamFile
{
    version     2.0;
    format      ascii;
    class       volScalarField;
    location    "100.9663773";
    object      omega_0;
}
// * * * * * * * * * * * * * * * * * * * * * * * * * * * * * * * * * * * * * //

dimensions      [0 0 -1 0 0 0 0];

internalField   nonuniform List<scalar> 
9200
(
0.0047756434
0.0048433915
0.0047618953
0.0049253819
0.0048234617
0.0047473284
0.0050440429
0.0048990092
0.004804571
0.004737194
0.0051953173
0.0050098525
0.0048759115
0.0047915382
0.0047293443
0.0053899588
0.0051509774
0.0049800633
0.0048597734
0.0047814989
0.0047236025
0.0056304912
0.0053318274
0.00511224
0.0049591477
0.0048474219
0.0047741527
0.0047191359
0.0059248676
0.0055549319
0.0052807578
0.0050852143
0.0049434934
0.0048383441
0.0047684424
0.0047155961
0.0062816954
0.0058296667
0.0054878728
0.0052456321
0.0050655804
0.0049321216
0.004831272
0.0047638874
0.0047126601
0.0067143837
0.0061652858
0.0057422413
0.0054426049
0.0052211131
0.0050517259
0.0049234562
0.0048255764
0.0047600644
0.0047101455
0.0072472918
0.0065764973
0.0060526642
0.0056845141
0.0054129524
0.0052048711
0.0050416962
0.0049165542
0.0048207303
0.0047567308
0.0047079381
0.0079215082
0.0070908521
0.0064330822
0.0059794432
0.0056496187
0.0053950464
0.0051942339
0.0050339909
0.0049106915
0.0048164128
0.0047537391
0.0047059744
0.0088000959
0.0077543668
0.0069111069
0.0063407836
0.0059377232
0.0056316194
0.0053849548
0.0051867402
0.0050274459
0.0049053741
0.004812422
0.0047510156
0.0047042164
0.0099993441
0.008643443
0.0075375712
0.00679622
0.0062903036
0.005920727
0.0056238445
0.0053789243
0.0051803766
0.0050213943
0.0049002779
0.0048086657
0.0047485306
0.004702638
0.011682757
0.0099009635
0.0083830497
0.0073964358
0.0067342237
0.0062742382
0.0059181569
0.00562118
0.0053740215
0.0051741318
0.0050152738
0.0048952697
0.0048051068
0.0047462728
0.0047012228
0.014385109
0.011727878
0.0096031417
0.0082044345
0.0073162078
0.0067170878
0.0062795142
0.0059220323
0.0056194841
0.0053682172
0.0051671256
0.0050088766
0.0048903247
0.0048017413
0.0047442266
0.0046999563
0.020393681
0.014850959
0.011470864
0.0093595968
0.0080921536
0.0072891724
0.0067276958
0.0062919127
0.0059250514
0.0056148212
0.0053602917
0.0051590879
0.0050022249
0.0048854746
0.004798575
0.0047423714
0.0046988217
0.03690657
0.022546678
0.014744065
0.011128348
0.0091720631
0.008041407
0.007296168
0.0067449042
0.0062993316
0.0059214734
0.0056055979
0.0053500336
0.0051501721
0.0049954486
0.0048807638
0.004795607
0.0047406839
0.0046977991
0.076735365
0.044495139
0.02283882
0.014174917
0.010769361
0.0090553581
0.008033748
0.0073087776
0.0067523572
0.0062950337
0.0059096272
0.00559193
0.0053378902
0.0051407235
0.0049886924
0.004876232
0.0047928265
0.0047391401
0.0046968687
0.14704203
0.095161594
0.04551584
0.021117521
0.01335685
0.010489477
0.009000018
0.0080311742
0.0073064099
0.0067419873
0.006277434
0.0058902493
0.0055748603
0.0053246021
0.0051311104
0.004982086
0.004871901
0.0047902175
0.004737715
0.0046960156
0.23702587
0.17852412
0.096640937
0.03962555
0.018398935
0.012646172
0.010313943
0.0089588725
0.0080058098
0.0072795668
0.0067120869
0.0062480932
0.0058653768
0.0055558485
0.0053109471
0.0051216491
0.0049757173
0.0048677744
0.0047877583
0.0047363878
0.004695221
0.3240585
0.27808923
0.17955289
0.081389023
0.030463882
0.016184257
0.012181272
0.010182468
0.0088964041
0.0079465698
0.0072261482
0.0066653165
0.0062106812
0.0058377232
0.0055363953
0.0052975714
0.0051125576
0.0049696301
0.004863842
0.0047854203
0.0047351426
0.0046944662
0.39312528
0.3684874
0.27674845
0.15065951
0.058068418
0.023177422
0.014949502
0.011861789
0.010044648
0.0087950282
0.0078532376
0.0071502897
0.0066077677
0.0061698932
0.0058099852
0.0055177009
0.005284904
0.0051039546
0.0049638363
0.0048600868
0.0047831819
0.004733966
0.0046937269
0.44147704
0.43675702
0.36529541
0.23580811
0.10691299
0.038376731
0.019348087
0.014245291
0.011588626
0.0098757337
0.0086470218
0.0077323012
0.007061397
0.0065469969
0.0061302637
0.0057842678
0.0055004853
0.0052731692
0.0050958803
0.0049583266
0.004856491
0.0047810262
0.0047328451
0.0046929962
0.47256462
0.48293206
0.43456543
0.31902074
0.1730755
0.06733488
0.027469613
0.017605752
0.013751884
0.011312101
0.0096643463
0.0084616153
0.007597266
0.0069709173
0.0064900745
0.0060952036
0.0057616075
0.0054850516
0.0052624396
0.0050883224
0.0049530767
0.0048530353
0.0047789398
0.004731766
0.0046922816
0.49097927
0.51133402
0.4839727
0.39018622
0.24525949
0.11137577
0.042832865
0.022835589
0.016736372
0.013331547
0.011008417
0.0094123505
0.0082620817
0.0074646864
0.0068893521
0.0064422066
0.006065976
0.0057421752
0.0054714862
0.0052526846
0.0050812363
0.0049480525
0.0048496957
0.0047769114
0.0047307152
0.0046915826
0.50055827
0.52665522
0.51661837
0.44673899
0.31413033
0.16612761
0.068490965
0.03162859
0.021034042
0.016194438
0.012925422
0.010674897
0.0091371227
0.0080723269
0.0073496584
0.0068241471
0.0064055217
0.0060427848
0.0057260018
0.0054597363
0.0052438055
0.0050745508
0.0049432142
0.0048464491
0.004774931
0.0047296821
0.0046908729
0.50415497
0.53274046
0.53605564
0.48934813
0.37510351
0.2251841
0.10457392
0.046402292
0.027720229
0.020354936
0.015771176
0.012508294
0.010329446
0.0088743935
0.0079136554
0.0072624222
0.0067789221
0.006379528
0.0060255682
0.0057130406
0.0054495919
0.0052356455
0.0050681757
0.004938519
0.004843274
0.0047729856
0.0047286544
0.0046901465
0.50383238
0.53252086
0.54559705
0.51977286
0.42670238
0.28368907
0.14891527
0.06960077
0.038391104
0.026848649
0.020117314
0.015383811
0.012088918
0.010005571
0.0086606719
0.0078001157
0.0072073479
0.0067524399
0.006363783
0.0060134446
0.0057029893
0.0054407049
0.0052280058
0.0050620167
0.0049339228
0.0048401439
0.0047710564
0.0047276138
0.004689401
0.50109962
0.52816045
0.54810177
0.54004137
0.46891906
0.33889318
0.19853801
0.10191277
0.056052068
0.037352953
0.027245032
0.02006791
0.015005067
0.011705425
0.0097417835
0.0085159365
0.0077362851
0.0071837184
0.0067420606
0.0063567122
0.0060062197
0.0056950594
0.0054326488
0.0052206816
0.0050559832
0.0049293833
0.0048370313
0.0047691181
0.0047265436
0.0046885849
0.49681528
0.52130833
0.54574617
0.55214374
0.50231931
0.38920907
0.25085094
0.14282485
0.084083434
0.055607585
0.039429384
0.028248714
0.020088772
0.014651567
0.01140701
0.0095650643
0.0084443056
0.0077198738
0.0071863406
0.0067461182
0.0063569193
0.0060023313
0.0056883589
0.0054249972
0.0052134874
0.0050499894
0.0049248624
0.0048339173
0.0047671542
0.0047254265
0.0046876813
0.491232
0.51292997
0.54026481
0.55790366
0.52774457
0.43356983
0.30350917
0.19116633
0.12409789
0.087245092
0.06221158
0.043169821
0.029528443
0.020131476
0.014349556
0.011201638
0.0094793928
0.0084394182
0.0077433283
0.0072095019
0.0067600444
0.0063616076
0.006000007
0.0056820581
0.0054173833
0.0052062583
0.0050439611
0.0049203312
0.004830771
0.0047651448
0.0047242499
0.0046867037
0.48548445
0.50355934
0.53258899
0.55892347
0.54623292
0.47142196
0.35405257
0.24462389
0.17573774
0.13678573
0.10465626
0.073305485
0.047881775
0.030846677
0.020081633
0.014075117
0.011090249
0.0094805808
0.0084890733
0.0077940649
0.0072447094
0.0067788036
0.0063677491
0.0059977555
0.0056754753
0.0054095086
0.0051988596
0.0050378397
0.0049157398
0.004827573
0.0047630728
0.0047230046
0.0046856457
0.48043634
0.49511475
0.52324027
0.55626386
0.55888574
0.50281665
0.4004612
0.29927916
0.23605272
0.20390102
0.17380106
0.1325395
0.087407394
0.052903498
0.031604019
0.019700018
0.013839417
0.011076182
0.0095565593
0.0085744969
0.0078583987
0.0072839531
0.0067978347
0.0063729346
0.0059944286
0.0056680958
0.0054011404
0.0051911935
0.0050316051
0.0049110579
0.0048243078
0.0047609277
0.0047216765
0.0046845025
0.47683042
0.48888057
0.51410742
0.55018178
0.5671934
0.52818244
0.44162297
0.35138173
0.29837368
0.28187741
0.26890134
0.2306549
0.16726116
0.10249468
0.055958123
0.031055533
0.019050458
0.013692268
0.01116034
0.0096779532
0.0086741161
0.0079242741
0.0073207142
0.0068136327
0.0063753867
0.0059892076
0.0056595525
0.0053921257
0.0051831935
0.0050251813
0.0049062674
0.0048209632
0.0047587007
0.0047202556
0.0046832685
0.47521686
0.48574658
0.50656582
0.54210524
0.57083618
0.54989202
0.4771692
0.39862986
0.35673975
0.35854549
0.37430721
0.36466225
0.30149414
0.20336916
0.11118413
0.054617707
0.029379762
0.018411497
0.013674658
0.011310898
0.0098128992
0.0087701929
0.0079827142
0.0073500598
0.0068236028
0.0063739165
0.0059815608
0.0056496237
0.0053823744
0.005174842
0.0050185448
0.0049013559
0.0048175303
0.0047563855
0.0047187374
0.0046819392
0.47590334
0.48603591
0.50169322
0.53341143
0.57008806
0.56717071
0.50980846
0.4400371
0.40806669
0.42555238
0.46965438
0.50272085
0.47900841
0.37146658
0.22238282
0.10694562
0.049664987
0.027364721
0.017984072
0.013781956
0.011476483
0.0099363778
0.008850931
0.0080270814
0.0073684937
0.0068261565
0.0063678472
0.0059712094
0.0056382152
0.0053718699
0.0051660655
0.0050116877
0.0048963169
0.004814003
0.0047539777
0.0047171186
0.0046805126
0.47892141
0.48948559
0.50001848
0.52554162
0.56580731
0.57912003
0.53881965
0.47767102
0.4515902
0.48031543
0.54479298
0.6147455
0.64644497
0.57927481
0.40394805
0.21106919
0.092372308
0.043922186
0.025727596
0.017842488
0.013930688
0.011620559
0.010033337
0.0089077013
0.0080526252
0.007373997
0.0068205616
0.0063569162
0.0059581006
0.0056253203
0.0053606022
0.005156863
0.0050046098
0.0048911489
0.004810379
0.0047514757
0.0047153984
0.0046789891
0.48401121
0.4955597
0.50140809
0.51971495
0.55905898
0.58584859
0.5628552
0.51228907
0.48811936
0.52349752
0.59933608
0.69113524
0.76606901
0.76073037
0.61920294
0.38054213
0.17601082
0.075513181
0.03942259
0.024806928
0.017842688
0.014071089
0.011721596
0.010092843
0.0089343392
0.0080571801
0.0073660587
0.0068067707
0.0063412036
0.0059423183
0.0056110864
0.0053485447
0.0051472536
0.0049973201
0.0048858551
0.0048066584
0.0047488799
0.0047135779
0.0046773712
0.49075953
0.5033731
0.50525385
0.51651944
0.55121952
0.58777849
0.58142774
0.54278322
0.52126059
0.55521978
0.63685466
0.73718954
0.83220798
0.87415123
0.80266649
0.58645893
0.31566543
0.13559774
0.062757183
0.036721415
0.024354786
0.017887349
0.014174841
0.01176635
0.01010695
0.0089287484
0.0080408091
0.0073451834
0.0067852581
0.0063210299
0.0059240443
0.0055955033
0.0053357536
0.0051372702
0.0049898343
0.0048804426
0.0048028445
0.0047461931
0.0047116605
0.0046756628
0.51182855
0.49852827
0.51066884
0.51584795
0.54360527
0.58555997
0.59435464
0.5684381
0.55072743
0.58103387
0.65948747
0.76130533
0.85932776
0.92456416
0.91828819
0.7747337
0.49875398
0.23773729
0.104444
0.055681224
0.035254046
0.024129784
0.017930281
0.014217518
0.01174596
0.010074033
0.00889242
0.0080052122
0.0073126423
0.0067568536
0.0062968701
0.0059037676
0.0055786525
0.0053223046
0.0051269528
0.0049821727
0.0048749216
0.0047989429
0.0047434201
0.0047096508
0.0046738698
0.51663865
0.51979314
0.50646225
0.5172883
0.53794541
0.58005985
0.60170503
0.58872895
0.57603654
0.60229448
0.6720378
0.76997919
0.86200356
0.93407431
0.97014194
0.90910348
0.68721779
0.3843835
0.17334802
0.086519503
0.052361166
0.034430744
0.024025654
0.017935303
0.014177469
0.011659473
0.0099981566
0.0088291521
0.0079531254
0.0072701865
0.0067225536
0.0062693106
0.0058814915
0.0055607106
0.0053082885
0.005116348
0.0049743594
0.0048693052
0.0047949614
0.0047405674
0.0047075553
0.0046719986
0.52020868
0.52219851
0.52628306
0.51360549
0.53380361
0.5724063
0.60383367
0.60329425
0.59670523
0.61930492
0.6795893
0.76459369
0.85099887
0.9204803
0.97869024
0.98351458
0.84526729
0.55655423
0.27732758
0.13532849
0.078183157
0.050775234
0.034039482
0.023961524
0.017872206
0.014045621
0.011516646
0.0098868613
0.0087442868
0.0078878455
0.0072197226
0.0066834032
0.006239112
0.005857494
0.0055418444
0.0052937963
0.0051055051
0.0049664208
0.0048636081
0.0047909093
0.0047376429
0.0047053814
0.004670057
0.5317678
0.52379311
0.52652852
0.53048235
0.51900364
0.5640166
0.60137072
0.61214206
0.61243078
0.63230542
0.68328974
0.75555459
0.82653491
0.89438252
0.96181288
1.0101678
0.95502794
0.72554207
0.41433071
0.20600667
0.11806514
0.074687053
0.050174046
0.033899505
0.023871723
0.017727616
0.013837876
0.011337715
0.00974998
0.008643758
0.0078127839
0.0071631486
0.0066406414
0.0062064826
0.0058321031
0.0055222262
0.0052789217
0.0050944752
0.0049583849
0.0048578468
0.0047867974
0.0047346554
0.0047031372
0.0046680529
0.55658129
0.53158244
0.52727777
0.52895789
0.53174442
0.52179869
0.59515383
0.61542005
0.62294716
0.6413476
0.6840518
0.74359669
0.80020525
0.85666797
0.92949728
1.004864
1.0165321
0.86786253
0.56976845
0.3030705
0.17241027
0.11104284
0.074022087
0.050155654
0.03387148
0.023716377
0.01750386
0.013579323
0.011137339
0.0096001822
0.0085331727
0.0077310841
0.007102232
0.0065950377
0.0061719664
0.0058056113
0.0055020185
0.0052637561
0.0050833087
0.0049502801
0.0048520382
0.0047826374
0.0047316146
0.0047008318
0.0046659951
0.58656144
0.55060711
0.53297884
0.52997438
0.52895872
0.52957164
0.52128361
0.61374824
0.62796657
0.64635762
0.68240087
0.7301539
0.77303628
0.81755879
0.88459932
0.97726042
1.0395038
0.97188924
0.72414867
0.42491017
0.24387143
0.16007348
0.10971894
0.074976797
0.050514335
0.033851183
0.023476385
0.017210099
0.013290682
0.010925523
0.0094445209
0.0084173552
0.0076454586
0.0070388003
0.0065472634
0.0061360494
0.0057782916
0.0054813774
0.0052483864
0.0050720543
0.0049421343
0.0048461997
0.0047784414
0.0047285308
0.0046984744
0.0046638919
0.60811003
0.57709057
0.54655804
0.53551096
0.53133698
0.5260467
0.52361368
0.51691586
0.627835
0.64734719
0.67849499
0.71635121
0.74756081
0.78072365
0.83768516
0.93191304
1.0317951
1.0371612
0.86046312
0.56294819
0.33371951
0.22216159
0.15863419
0.11196958
0.076898612
0.051061727
0.033767017
0.023146212
0.01685594
0.012986547
0.010709236
0.0092873027
0.0082999316
0.0075582591
0.0069734483
0.0064980733
0.0060991498
0.0057503937
0.0054604442
0.0052328935
0.0050607587
0.004933975
0.0048403488
0.004774222
0.0047254142
0.0046960741
0.0046617521
0.62343394
0.59982634
0.56835247
0.54506347
0.53865334
0.53095805
0.51984813
0.51365861
0.50829352
0.64451715
0.67244452
0.70300709
0.72609859
0.75036856
0.79509222
0.8804921
0.9978551
1.0676508
0.96889736
0.70384552
0.44055004
0.29741104
0.22050817
0.16365549
0.11658835
0.079300792
0.051617837
0.033573064
0.02273077
0.016449718
0.012676931
0.010493537
0.0091314848
0.0081835479
0.007470646
0.0069071529
0.0064480637
0.0060616435
0.0057221342
0.0054393464
0.0052173522
0.0050494653
0.0049258284
0.004834503
0.0047699916
0.0047222745
0.0046936399
0.0046595843
0.63859504
0.61606461
0.59041531
0.56172814
0.54631486
0.54193592
0.52854098
0.51009985
0.49961513
0.49515942
0.66473943
0.6909664
0.71050036
0.729876
0.76286029
0.83155351
0.94844506
1.0643283
1.0484728
0.83424565
0.55982501
0.38460758
0.29471455
0.2301762
0.17305386
0.1226569
0.081736357
0.052049434
0.033245927
0.022240237
0.016003922
0.012369288
0.010282042
0.0089791397
0.0080697328
0.0073834028
0.0068406902
0.0063977339
0.0060238364
0.0056937021
0.0054181991
0.0052018303
0.0050382149
0.0049177202
0.0048286783
0.0047657609
0.0047191212
0.0046911816
0.0046574026
0.65645321
0.63095348
0.60738528
0.58164961
0.55824246
0.55022226
0.54495971
0.52386914
0.49672332
0.48139574
0.47738119
0.6814495
0.70207702
0.72089091
0.74496654
0.79331565
0.89370891
1.0324428
1.0944317
0.95376274
0.68451806
0.48212455
0.37902456
0.31067414
0.2474421
0.18539426
0.12929815
0.083999556
0.052268039
0.032770319
0.021685541
0.015543539
0.012068403
0.010077178
0.0088319207
0.0079583238
0.0072972307
0.0067746211
0.0063474742
0.0059859812
0.0056652621
0.0053971029
0.0051863896
0.0050270454
0.0049096726
0.0048228879
0.0047615405
0.004715966
0.0046887106
0.0046552192
0.67612919
0.64936594
0.62344539
0.5993856
0.57539296
0.55875668
0.55650608
0.54735469
0.51676366
0.47979591
0.45893364
0.45566959
0.70145179
0.72302402
0.74195981
0.77143497
0.84467055
0.98129181
1.101912
1.0527726
0.81582372
0.5875652
0.47085014
0.40238727
0.33879159
0.27006842
0.19934744
0.13571079
0.085893439
0.052216977
0.032128308
0.021081207
0.015093128
0.01177842
0.0098811153
0.008688876
0.0078498916
0.007213048
0.0067093212
0.0062975788
0.0059482938
0.0056369547
0.0053761475
0.0051710859
0.0050159889
0.0049017028
0.0048171445
0.004757346
0.0047128235
0.004686235
0.0046530305
0.70851911
0.67638258
0.64551557
0.61828565
0.59414735
0.57328593
0.56375835
0.56468301
0.5487218
0.50703322
0.45936743
0.43291604
0.4305914
0.73421379
0.75122453
0.76701104
0.81052099
0.92357778
1.0759246
1.1148812
0.94745899
0.70176263
0.56719952
0.50165556
0.44398648
0.37566118
0.29597005
0.21358613
0.14146973
0.087250009
0.051732928
0.031355969
0.020458618
0.0146643
0.011502773
0.0096918019
0.0085505169
0.007744797
0.0071312357
0.0066449838
0.0062482793
0.0059109444
0.0056088996
0.0053554121
0.0051559654
0.005005069
0.0048938275
0.0048114703
0.0047531985
0.0047097006
0.004683734
0.0046503676
0.75168885
0.72109168
0.68285875
0.64691393
0.61757036
0.5935698
0.57657997
0.57318961
0.57405622
0.54861235
0.49445293
0.43583889
0.40402567
0.399651
0.76848467
0.77669346
0.795828
0.87240052
1.0269383
1.13571
1.0583935
0.83286001
0.66074167
0.60433031
0.5586516
0.49879431
0.41827897
0.32292219
0.22685432
0.14610172
0.087825922
0.050966277
0.030541727
0.019852521
0.014261501
0.011238396
0.0095093708
0.0084172002
0.0076432217
0.0070519165
0.0065822485
0.0061997347
0.005874076
0.0055812019
0.00533496
0.0051410601
0.0049943086
0.0048860792
0.0048058962
0.0047491023
0.0047065561
0.0046806194
0.004647628
0.78885127
0.77158892
0.73836542
0.69475165
0.65456314
0.62280606
0.59900769
0.5857796
0.58637566
0.58371911
0.54658817
0.47856742
0.40918183
0.36959083
0.36204534
0.79486165
0.79917959
0.83842089
0.96779579
1.1197345
1.133396
0.96530848
0.77263278
0.69283689
0.67861158
0.63515035
0.5629935
0.46338683
0.34862799
0.23808823
0.14929499
0.087638334
0.050032218
0.029721923
0.019276546
0.013875607
0.010984459
0.009334297
0.0082890591
0.0075452182
0.0069751472
0.0065214062
0.0061520544
0.0058378082
0.0055539411
0.0053148334
0.0051264024
0.0049837556
0.0048785026
0.0048004219
0.0047449731
0.0047021561
0.0046774437
0.0046448379
0.8153956
0.80739318
0.78939219
0.75605027
0.71150533
0.6682964
0.63439627
0.61079619
0.60037042
0.60209007
0.59289562
0.54077065
0.45863556
0.37698564
0.32908516
0.31709929
0.8149821
0.82641528
0.91256738
1.0766509
1.1660157
1.0794996
0.89777436
0.79317989
0.77758437
0.78183109
0.72747333
0.63258252
0.50743743
0.37104811
0.24659492
0.15095288
0.086856671
0.048981914
0.028906331
0.018707464
0.013503913
0.010741446
0.0091666878
0.0081660414
0.0074507447
0.0069009331
0.0064624913
0.0061053389
0.0058022263
0.0055271679
0.0052950761
0.0051120633
0.0049734739
0.0048710899
0.0047949005
0.0047387558
0.0046977409
0.0046742285
0.0046419985
0.83606361
0.83259158
0.81943484
0.80090244
0.77044148
0.72892229
0.68612652
0.65128998
0.62794535
0.61884038
0.61883796
0.59844675
0.5306379
0.43244744
0.33836195
0.28224236
0.26476197
0.83416922
0.87404793
1.0190695
1.1587817
1.1586921
1.0223551
0.90355234
0.88239746
0.90481178
0.91130658
0.83152941
0.70283212
0.54704988
0.38876151
0.25207923
0.15116371
0.085604498
0.047794295
0.028038998
0.018144314
0.013147468
0.010508949
0.0090064225
0.0080479506
0.0073597075
0.0068292514
0.0064055171
0.0060598726
0.0057673726
0.0055009365
0.005275791
0.0050981284
0.0049634441
0.0048636076
0.0047858258
0.0047326195
0.0046933762
0.0046709639
0.004639117
0.85467868
0.85550922
0.84145406
0.82134251
0.80291386
0.77801969
0.74344441
0.70480573
0.67104833
0.64827285
0.63900346
0.63311713
0.60029074
0.51392651
0.39826827
0.29264434
0.22972369
0.206608
0.85951813
0.96092157
1.1208395
1.1945327
1.1274549
1.0173735
0.98763986
1.0256745
1.0734477
1.0632723
0.94037605
0.76784437
0.57928428
0.4011004
0.25465694
0.15009973
0.083757137
0.046388798
0.027136239
0.017593206
0.012806122
0.010286035
0.0088531444
0.0079345293
0.007272
0.0067600698
0.0063504707
0.0060158926
0.0057332969
0.0054753879
0.0052570876
0.005084563
0.0049533108
0.0048504883
0.0047769946
0.0047266708
0.0046890345
0.0046676583
0.0046361952
0.8686328
0.87937488
0.8679098
0.83824335
0.81055591
0.79302346
0.77590967
0.75150869
0.72048464
0.69034593
0.66886958
0.65700032
0.64471834
0.59581475
0.48783674
0.35425898
0.24008477
0.17417979
0.14716225
0.91534305
1.0648047
1.1884381
1.1964312
1.1224187
1.088206
1.1332717
1.2153636
1.2795642
1.227818
1.0432122
0.82145175
0.60253344
0.40812646
0.25418456
0.147356
0.08134321
0.044840778
0.026221929
0.017057802
0.012478903
0.0100723
0.0087063443
0.0078255315
0.007187513
0.0066933311
0.0062973124
0.0059734011
0.005700171
0.0054506588
0.0052389101
0.0050708525
0.0049343788
0.0048378792
0.004768582
0.0047208453
0.0046847306
0.0046643062
0.0046332389
0.89319555
0.89349623
0.90116333
0.86990742
0.8219463
0.78609711
0.77006433
0.76217981
0.75017786
0.72951698
0.70578059
0.6853704
0.67212657
0.65113169
0.58130838
0.44871961
0.29925138
0.18302714
0.12108023
0.094151456
1.0043516
1.1499833
1.2209593
1.202264
1.1780286
1.2213693
1.3199014
1.4380515
1.505254
1.3861301
1.1305585
0.86163649
0.61647269
0.40848508
0.2503229
0.14337173
0.078585628
0.04322083
0.02531314
0.016539555
0.012163983
0.0098677007
0.0085656044
0.0077207402
0.0071061234
0.0066289564
0.0062460199
0.0059324709
0.0056681546
0.0054266611
0.0052205444
0.0050439824
0.0049163697
0.0048260416
0.0047604724
0.0047151658
0.004680456
0.0046609134
0.0046302513
0.95252572
0.89591274
0.92476535
0.91517018
0.86041945
0.79284066
0.74872467
0.73414784
0.7359318
0.73740065
0.72927284
0.71343626
0.69672618
0.68194289
0.64814204
0.55134153
0.39281364
0.23431374
0.12722689
0.077422424
0.055443101
1.092449
1.2038542
1.2430599
1.2470625
1.2878085
1.3842556
1.5237994
1.6642852
1.7124633
1.5159032
1.1938932
0.88405801
0.61861357
0.40334132
0.24425003
0.13865409
0.075660689
0.041578937
0.024420374
0.016037737
0.011858605
0.0096716177
0.0084305672
0.0076199322
0.0070276972
0.0065668979
0.0061966688
0.0058931614
0.0056371076
0.0054024644
0.005183645
0.0050185877
0.004899664
0.0048147793
0.0047526995
0.0047096088
0.004676216
0.0046574785
0.0046272377
1.0297193
0.92120128
0.92052035
0.9543535
0.92006553
0.84004268
0.75317504
0.70019926
0.68656084
0.69744146
0.71252491
0.71828615
0.71251384
0.70059081
0.68191541
0.62944939
0.49912103
0.3184481
0.165313
0.080819128
0.047443102
0.033185222
1.1564552
1.2402196
1.2830262
1.3293931
1.4165487
1.5473142
1.7045789
1.8489135
1.8665334
1.60183
1.2243014
0.88866401
0.61256934
0.394728
0.2369178
0.13359669
0.07268299
0.039947259
0.023548149
0.015549439
0.011560698
0.0094836952
0.0083008776
0.0075228934
0.0069521501
0.0065072339
0.0061493205
0.0058553378
0.0056058901
0.0053545474
0.0051488131
0.0049952221
0.0048839548
0.00480413
0.0047452241
0.0047041747
0.0046720079
0.0046540066
0.0046242013
1.0941267
0.97525899
0.91551383
0.95804589
0.9783644
0.91684833
0.81090638
0.70543192
0.64318063
0.62965403
0.64841449
0.67754278
0.69705618
0.70089389
0.6923028
0.66564062
0.58605971
0.41918566
0.23065521
0.10367635
0.048760186
0.030349187
0.022259652
1.2023076
1.2767777
1.3411889
1.4231889
1.532472
1.6645188
1.8205727
1.9719948
1.9608308
1.6391472
1.2292645
0.8818418
0.60156219
0.38426723
0.22902799
0.12845426
0.069719673
0.038343144
0.02269534
0.015072203
0.01126989
0.0093035421
0.0081762195
0.0074294898
0.0068795551
0.0064500309
0.0061037936
0.0058178055
0.0055467689
0.0053092573
0.0051168268
0.0049734349
0.004869284
0.0047940248
0.0047380368
0.0046988549
0.0046678361
0.0046504982
0.004621134
1.1418617
1.0314911
0.94057778
0.93623508
0.99999891
0.99616974
0.90684384
0.77456509
0.65188324
0.5808363
0.56676121
0.59299898
0.63439681
0.66319152
0.67454836
0.6658678
0.62434962
0.50817573
0.31387646
0.14463712
0.059558486
0.030849426
0.021512559
0.016674974
1.2353986
1.317683
1.4024239
1.4938783
1.5912825
1.7092183
1.8774308
2.0569721
2.0171475
1.6443211
1.2192487
0.86866738
0.58813693
0.37313046
0.22101204
0.12336402
0.066802858
0.036769407
0.021860144
0.014604775
0.010990406
0.0091307627
0.0080563963
0.0073397774
0.0068099849
0.0063950468
0.0060585864
0.0057447776
0.005491109
0.0052675785
0.0050870784
0.0049532858
0.0048555393
0.0047844383
0.0047311223
0.0046936461
0.0046636985
0.0046469451
0.0046180303
1.1719954
1.0754135
0.98159204
0.93400077
0.97815582
1.0411449
1.0084813
0.88997112
0.73173154
0.59444896
0.51666646
0.50221638
0.53403108
0.57947028
0.61432449
0.62893563
0.614403
0.5481255
0.3928646
0.19989434
0.07986454
0.034868405
0.021757489
0.01658462
0.013378534
1.2624914
1.3507221
1.4331628
1.5049541
1.5834661
1.7120937
1.9212114
2.1362354
2.0474622
1.6299256
1.2020339
0.85293367
0.57410277
0.36199738
0.21309327
0.11837596
0.063932182
0.035225131
0.021041991
0.014145427
0.010722164
0.0089651411
0.0079414582
0.0072538476
0.0067431238
0.0063403603
0.0059666736
0.0056766624
0.0054400719
0.0052286677
0.0050596946
0.004934605
0.004842669
0.0047753373
0.0047244671
0.0046885412
0.0046595612
0.0046433663
0.0046148901
1.1887757
1.1026332
1.0186248
0.95639376
0.95893726
1.0332908
1.0793678
1.0150238
0.86445011
0.68241006
0.53509519
0.4538794
0.43695961
0.46735928
0.51259674
0.54851286
0.55991367
0.5311229
0.43260086
0.25803525
0.10851537
0.042508645
0.023137492
0.016732949
0.013513763
0.011239757
1.2738051
1.349689
1.4068779
1.4594018
1.5508809
1.714671
1.9782207
2.217163
2.0555024
1.606065
1.1830326
0.83719109
0.56043451
0.35116007
0.2053329
0.11346719
0.061103909
0.03371049
0.020239217
0.013692908
0.010465406
0.0088067308
0.0078314966
0.0071712865
0.0066764548
0.0062232827
0.0058819062
0.0056143174
0.0053924353
0.0051927577
0.0050344657
0.0049173053
0.0048306123
0.0047666923
0.0047180545
0.0046834777
0.0046554244
0.0046397695
0.0046117188
1.186027
1.1138351
1.0435533
0.98546781
0.96539246
1.0118734
1.0942178
1.113622
1.0133918
0.82771405
0.62640402
0.4755216
0.38759469
0.36851248
0.39458087
0.43472897
0.46516898
0.46578132
0.41521375
0.2918047
0.14130813
0.053709713
0.025630116
0.017245014
0.013663329
0.011410965
0.0098145463
1.2513706
1.2969701
1.3352843
1.4022662
1.5242321
1.7327803
2.0580275
2.2947078
2.045524
1.5808946
1.1663823
0.82270418
0.54744335
0.34062578
0.19767879
0.10861298
0.058321214
0.032223229
0.019450997
0.013248823
0.010220681
0.0086556216
0.0077259721
0.007088664
0.0065243778
0.0061169049
0.0058051139
0.0055566741
0.005348436
0.0051596191
0.0050112869
0.0049012841
0.0048193134
0.0047584687
0.0047117722
0.0046784839
0.0046512826
0.0046361604
0.0046085227
1.1539421
1.1064057
1.0550439
1.0106436
0.98861525
1.0113634
1.0840209
1.1556882
1.1416037
0.99917399
0.77698442
0.56369273
0.4038647
0.32002931
0.29986657
0.31831172
0.34846719
0.36683159
0.35076611
0.28005915
0.16264917
0.067442344
0.029144601
0.01807342
0.013894408
0.011556078
0.0099551081
0.0088086452
1.1866615
1.2144881
1.2637493
1.357147
1.5140136
1.7729784
2.1619526
2.3612066
2.0251482
1.5628286
1.1539216
0.8097999
0.53509975
0.3302281
0.19008319
0.1037986
0.05557782
0.030762804
0.018678048
0.01282397
0.009988227
0.0085111304
0.0076198875
0.006883546
0.0063893892
0.0060216998
0.0057347551
0.0055036666
0.005307714
0.0051291775
0.0049900194
0.0048864465
0.0048087108
0.0047504868
0.0047056524
0.0046735519
0.0046471406
0.0046325466
0.0046053079
1.0957581
1.0786982
1.0543148
1.0303659
1.018813
1.0342306
1.0877395
1.1651632
1.2138567
1.1587322
0.96647927
0.70668448
0.47786819
0.3293584
0.25549102
0.23414733
0.24256754
0.25893264
0.26152548
0.22983378
0.15743521
0.077582374
0.033455488
0.01913638
0.014175738
0.011689485
0.01005795
0.008911219
0.0080467761
1.1116258
1.1427089
1.2109334
1.3309012
1.5229135
1.8380609
2.2861724
2.4087282
2.0072439
1.5550617
1.1454581
0.79820547
0.52306282
0.31980032
0.18247694
0.099004536
0.052872265
0.029331156
0.017922024
0.012419886
0.0097672533
0.0083651328
0.0073230698
0.0067089804
0.0062705086
0.0059353552
0.0056706
0.0054548523
0.0052701396
0.0051013078
0.0049705268
0.0048726897
0.004798519
0.0047428188
0.0046996709
0.0046686848
0.0046430069
0.0046289341
0.0046020809
1.0490887
1.0496458
1.0492652
1.0499393
1.0554823
1.0748851
1.1171473
1.1820363
1.2470025
1.2639771
1.1604009
0.89375672
0.60023288
0.38481661
0.25892176
0.19710004
0.17450048
0.17263588
0.17483507
0.16406096
0.12812616
0.076097884
0.036852188
0.020349522
0.014468633
0.011770836
0.010117617
0.0089804293
0.008115674
0.0074452678
1.0579518
1.0959574
1.1797723
1.3228771
1.5505794
1.9293009
2.4206703
2.434171
2.0008157
1.5567972
1.1399082
0.78721359
0.51095191
0.3091591
0.17480202
0.094225335
0.050208132
0.027931513
0.017185331
0.012036536
0.0095428787
0.0078856235
0.0070891456
0.006559048
0.0061639792
0.0058573443
0.0056119726
0.0054099771
0.0052355346
0.0050758803
0.0049526555
0.0048595792
0.0047888504
0.0047354228
0.0046938273
0.0046638895
0.0046388875
0.0046253307
0.0045988488
1.0315171
1.0489919
1.0682779
1.0859149
1.1065319
1.1341424
1.1720374
1.2236732
1.2817178
1.3225866
1.3037835
1.1020903
0.76780376
0.47753097
0.29602483
0.19707835
0.14660127
0.12364956
0.11421978
0.10680512
0.090939785
0.063561251
0.036597114
0.021289224
0.014756739
0.011792545
0.010109206
0.0089983239
0.0081577429
0.0074825074
0.0069515377
1.0326677
1.0712833
1.1661215
1.3297168
1.5966798
2.0456285
2.5427623
2.447579
2.0105508
1.5660094
1.1358283
0.7760565
0.49835619
0.29817322
0.16703014
0.089469941
0.047591716
0.026568808
0.016467475
0.01164487
0.008662277
0.0075512792
0.0068968984
0.0064267768
0.0060687052
0.0057866426
0.0055584627
0.0053687782
0.0052037362
0.0050527247
0.0049357602
0.0048472991
0.0047796281
0.0047282908
0.0046881238
0.0046591705
0.004634792
0.0046217447
0.004595617
1.0380265
1.0756511
1.118223
1.1558297
1.1885174
1.2189948
1.2543334