/*--------------------------------*- C++ -*----------------------------------*\
  =========                 |
  \\      /  F ield         | OpenFOAM: The Open Source CFD Toolbox
   \\    /   O peration     | Website:  https://openfoam.org
    \\  /    A nd           | Version:  8
     \\/     M anipulation  |
\*---------------------------------------------------------------------------*/
FoamFile
{
    version     2.0;
    format      ascii;
    class       volScalarField;
    location    "100.9663773";
    object      omega;
}
// * * * * * * * * * * * * * * * * * * * * * * * * * * * * * * * * * * * * * //

dimensions      [0 0 -1 0 0 0 0];

internalField   nonuniform List<scalar> 
9200
(
0.0047744863
0.004841824
0.0047608556
0.0049233924
0.0048220389
0.0047465213
0.0050414356
0.0048972608
0.0048034419
0.0047365555
0.0051919372
0.0050075486
0.0048745248
0.0047906406
0.0047288484
0.005385529
0.0051479699
0.0049782286
0.0048586724
0.0047807943
0.0047232052
0.0056246038
0.0053278405
0.0051098556
0.0049577067
0.0048465622
0.0047735841
0.0047188075
0.0059171566
0.0055497189
0.0052776421
0.0050833803
0.0049423817
0.0048376532
0.0047679683
0.0047153128
0.0062720489
0.0058230034
0.0054838874
0.005243302
0.0050641928
0.0049312415
0.0048306964
0.0047634755
0.004712406
0.0067031008
0.0061570627
0.0057373049
0.0054397563
0.0052194284
0.0050506706
0.0049227363
0.0048250752
0.0047596926
0.0047099104
0.0072352526
0.0065671493
0.0060467897
0.005681193
0.0054110813
0.0052036893
0.0050408712
0.0049159332
0.0048202739
0.0047563851
0.0047077161
0.0079099408
0.007080933
0.006426458
0.0059757418
0.0056477548
0.005393892
0.0051933868
0.0050332957
0.004910122
0.0048159815
0.0047534115
0.0047057618
0.0087918085
0.0077450766
0.006904444
0.0063369953
0.0059360177
0.0056307098
0.0053842504
0.0051860492
0.0050268056
0.0049048225
0.0048120038
0.0047507022
0.0047040101
0.010000101
0.0086371182
0.0075316833
0.0067930338
0.0062891211
0.0059203673
0.0056234766
0.0053783855
0.0051797225
0.0050207475
0.004899724
0.004808255
0.0047482298
0.0047024363
0.011704723
0.0099027674
0.0083794535
0.0073943357
0.0067342315
0.0062749438
0.0059184882
0.005621002
0.0053734515
0.0051734082
0.0050145837
0.0048947055
0.0048047016
0.0047459828
0.0047010239
0.014473749
0.011749828
0.0096044893
0.0082040317
0.0073176131
0.0067193309
0.0062810591
0.0059224825
0.0056191096
0.0053674401
0.0051662703
0.0050081327
0.0048897501
0.004801342
0.0047439451
0.0046997582
0.020734724
0.014946156
0.011485237
0.0093614074
0.0080949017
0.0072930425
0.0067306363
0.0062931865
0.0059249512
0.0056139752
0.0053592227
0.0051580915
0.0050014338
0.0048848939
0.0047981823
0.0047420958
0.0046986223
0.038036095
0.022924023
0.014805083
0.011133436
0.0091752995
0.0080464364
0.0073003831
0.006746961
0.0062994738
0.0059204723
0.0056041915
0.0053486765
0.0051490583
0.0049946252
0.0048801829
0.0047952207
0.0047404115
0.0046975959
0.079341385
0.045639148
0.023063383
0.014189971
0.0107703
0.0090603294
0.0080386955
0.0073112938
0.0067525002
0.0062936635
0.0059076604
0.0055900047
0.0053363027
0.0051395318
0.0049878551
0.0048756567
0.0047924461
0.004738868
0.0046966603
0.15126938
0.097401244
0.046107785
0.021150042
0.013346844
0.010491085
0.0090045293
0.0080335031
0.0073060326
0.0067398185
0.0062745243
0.0058874285
0.00557254
0.0053228708
0.0051298858
0.0049812524
0.0048713357
0.0047898418
0.0047374408
0.0046958005
0.24206791
0.18151855
0.097523749
0.039608745
0.018336053
0.012634834
0.010315516
0.0089599247
0.0080041162
0.007275901
0.0067076345
0.006243881
0.0058619482
0.0055533071
0.0053091663
0.0051204327
0.0049749013
0.0048672217
0.0047873855
0.0047361096
0.0046949982
0.32891197
0.28079334
0.18010544
0.080960962
0.030179317
0.0161254
0.012173965
0.010180394
0.008892549
0.0079404806
0.0072193227
0.0066590217
0.0062056156
0.0058340089
0.0055338149
0.0052958229
0.0051113813
0.004968842
0.0048633035
0.0047850491
0.0047348593
0.0046942352
0.39719063
0.37024136
0.27620647
0.14917767
0.057130949
0.02294562
0.014916174
0.011853282
0.010037346
0.0087858032
0.0078430776
0.0071410496
0.0066003836
0.0061645268
0.0058063155
0.0055152317
0.0052832474
0.0051028411
0.0049630835
0.0048595639
0.0047828117
0.0047336773
0.0046934878
0.4446684
0.43761149
0.36357433
0.23284943
0.10470765
0.037638809
0.01923145
0.014222839
0.011576503
0.0098628135
0.0086327897
0.0077192248
0.0070509203
0.0065393937
0.0061251322
0.0057809026
0.0054982215
0.0052716437
0.0050948447
0.0049576139
0.0048559848
0.0047806572
0.0047325509
0.0046927495
0.47498309
0.48315609
0.43211264
0.31479488
0.16921887
0.065580826
0.027113178
0.017548692
0.013733554
0.011295566
0.0096463447
0.0084441369
0.0075830164
0.0069605182
0.006483056
0.0060906984
0.0057586315
0.0054830436
0.0052610703
0.0050873747
0.004952407
0.0048525462
0.0047785725
0.0047314668
0.004692028
0.4927473
0.51115618
0.481281
0.38525457
0.239891
0.1081391
0.041904614
0.022687725
0.016706483
0.013313991
0.010987906
0.009391163
0.0082438597
0.0074511808
0.0068802092
0.0064363657
0.0060621852
0.005739675
0.0054697699
0.0052514877
0.0050803813
0.0049474268
0.0048492241
0.0047765467
0.004730412
0.0046913234
0.50177809
0.52622965
0.51398379
0.44164976
0.30772471
0.16130257
0.066611029
0.031266153
0.020986974
0.016179473
0.012907917
0.010652404
0.009115958
0.008056073
0.0073385927
0.0068171032
0.0064011245
0.0060398972
0.0057240296
0.0054583383
0.0052427869
0.005073788
0.004942632
0.0048459951
0.0047745698
0.004729376
0.0046906096
0.50490471
0.53216993
0.5336838
0.48451323
0.36820172
0.21903372
0.101478
0.045612662
0.027641875
0.020360814
0.015767536
0.012492139
0.010308573
0.0088571227
0.0079017655
0.0072549506
0.0067744518
0.0063767
0.0060236283
0.0057116317
0.0054485167
0.0052347993
0.0050675004
0.0049379785
0.0048428377
0.0047726288
0.0047283468
0.0046898805
0.50417253
0.53185309
0.54370257
0.51546603
0.41978816
0.27665675
0.1446289
0.068227158
0.038262888
0.026918302
0.020161542
0.015391555
0.012077747
0.0099912038
0.0086505697
0.0077941211
0.0072040689
0.0067505309
0.0063625206
0.0060124751
0.00570214
0.0054399309
0.005227317
0.0050614218
0.0049334213
0.0048397248
0.0047707049
0.0047273062
0.0046891339
0.50108185
0.52741582
0.54670867
0.53641822
0.46236612
0.33143689
0.19331915
0.10003954
0.055938083
0.037594844
0.027420875
0.02014652
0.015026849
0.011705048
0.0097388608
0.0085147896
0.0077367843
0.0071846615
0.0067428198
0.0063570933
0.0060061856
0.0056947064
0.0054321364
0.0052201305
0.0050554594
0.0049289176
0.0048366288
0.0047687729
0.0047262374
0.0046883183
0.49647403
0.52050566
0.54479492
0.54926977
0.49638117
0.38171458
0.24507429
0.14066667
0.084271127
0.056347909
0.039948988
0.028519537
0.020201172
0.014693293
0.011421037
0.0095745505
0.0084523233
0.0077267685
0.0071913912
0.0067493785
0.0063587286
0.0060030573
0.0056884088
0.0054246993
0.0052130515
0.0050495266
0.0049244291
0.0048335308
0.0047668159
0.0047251227
0.0046874161
0.49061133
0.51209411
0.53965208
0.5557797
0.52257624
0.42632389
0.29752202
0.18903496
0.12510538
0.089187656
0.063698498
0.043964572
0.029883532
0.020278388
0.014403276
0.011227649
0.0095003338
0.008455999
0.0077557161
0.0072178536
0.0067652133
0.0063644648
0.0060012941
0.0056824102
0.0054172517
0.0052059143
0.0050435495
0.0049199263
0.0048303998
0.0047648139
0.0047239495
0.0046864409
0.48466133
0.50273938
0.53224926
0.55750264
0.54192717
0.46462706
0.34808737
0.24271577
0.17797921
0.1407989
0.10834891
0.075596498
0.048950286
0.031270278
0.020224383
0.014132256
0.011127392
0.0095120447
0.0085127444
0.0078104956
0.0072553221
0.0067852229
0.0063712835
0.005999412
0.0056760339
0.0054094964
0.0051985856
0.0050374699
0.0049153599
0.004827216
0.0047627498
0.0047227084
0.0046853861
0.4795071
0.49433896
0.52310464
0.55550231
0.55546219
0.49660835
0.39464868
0.29758072
0.23949331
0.21054268
0.18093813
0.13806019
0.090509107
0.05418499
0.031961739
0.019811944
0.013898884
0.011123999
0.0095965102
0.0086028436
0.0078772067
0.0072958148
0.006804908
0.0063768193
0.0059962839
0.0056687751
0.0054012057
0.0051909699
0.0050312689
0.0049106994
0.004823964
0.0047606125
0.0047213851
0.0046842467
0.47590332
0.48817884
0.51406997
0.55000191
0.5646855
0.522643
0.43603421
0.34976065
0.30254088
0.29060511
0.27992296
0.24108934
0.1744939
0.10613695
0.05698488
0.031261691
0.019131806
0.013757993
0.011218416
0.0097227406
0.0087044942
0.0079439638
0.0073329494
0.0068208491
0.0063793444
0.0059911171
0.0056602798
0.0053922336
0.0051830022
0.0050248708
0.0049059271
0.0048206315
0.0047583934
0.0047199696
0.0046830171
0.47439592
0.48512483
0.50651263
0.54234552
0.56928335
0.54513992
0.47184426
0.39694314
0.36106654
0.36822218
0.38770901
0.37972743
0.31460183
0.21128828
0.11393705
0.055092963
0.02945391
0.018482707
0.013750184
0.011373941
0.0098586299
0.008800489
0.008002071
0.0073619212
0.0068305389
0.0063777252
0.0059834086
0.0056503424
0.0053824952
0.005174671
0.0050182533
0.0049010307
0.0048172096
0.004756086
0.004718457
0.0046816925
0.47526219
0.48546782
0.50151538
0.5338728
0.56942542
0.56331173
0.50476438
0.43818778
0.41213878
0.43519453
0.48345913
0.51934425
0.49589605
0.38400068
0.2279512
0.10807388
0.049668319
0.027385736
0.018064791
0.01386214
0.011539515
0.0099802051
0.0088795329
0.0080450556
0.0073793786
0.0068324968
0.0063713399
0.0059729116
0.0056388822
0.0053719792
0.0051659033
0.0050114092
0.0048960041
0.0048136923
0.0047536858
0.0047168441
0.0046802709
0.47848781
0.48892691
0.49962183
0.52600968
0.56590383
0.57621628
0.5341449
0.4754853
0.45517871
0.48938113
0.55763568
0.63020725
0.66285767
0.5923815
0.41120562
0.21293201
0.092162974
0.043740685
0.025763553
0.017932918
0.014009019
0.011679886
0.01007322
0.0089332084
0.0080684132
0.0073834932
0.0068260925
0.0063599802
0.0059596004
0.005625905
0.0053606864
0.0051567003
0.0050043398
0.0048908463
0.0048100773
0.0047511911
0.0047151298
0.0046787525
0.48376277
0.49496054
0.50073056
0.51996631
0.55972142
0.58390897
0.55866698
0.50978791
0.49092138
0.53164708
0.61056409
0.70408708
0.77876537
0.7700875
0.62454012
0.38172634
0.17507136
0.074773699
0.039268298
0.024876991
0.017932105
0.014143576
0.011774288
0.01012699
0.0089557462
0.0080703049
0.0073739349
0.0068113738
0.0063437759
0.0059435795
0.0056115676
0.0053485924
0.0051470838
0.0049970548
0.0048855607
0.0048063649
0.0047486024
0.0047133153
0.0046771397
0.49064412
0.50265391
0.50426176
0.51648842
0.55213194
0.58675377
0.57783025
0.54006457
0.52315355
0.56217663
0.64629597
0.74736416
0.84064618
0.87900564
0.804238
0.58487913
0.31267552
0.13361212
0.062112988
0.036676902
0.024435259
0.017971133
0.014238474
0.011809774
0.01013419
0.0089456057
0.008051087
0.0073513603
0.0067888981
0.0063230871
0.0059250526
0.0055958699
0.0053357568
0.0051370886
0.004989571
0.0048801548
0.0048025583
0.0047459223
0.0047114037
0.0046754366
0.5109067
0.49842693
0.50936106
0.51540917
0.54451392
0.58534007
0.59142203
0.56562587
0.55170212
0.58651089
0.66730643
0.76885927
0.86417962
0.92630618
0.9171337
0.7702022
0.49245944
0.23320289
0.10271839
0.055340501
0.035270273
0.024212859
0.018005072
0.014269368
0.011778639
0.010094107
0.0089047288
0.0080127006
0.0073171715
0.0067595571
0.0062984224
0.0059045244
0.005578901
0.0053222596
0.0051267564
0.0049819092
0.0048746392
0.0047986634
0.0047431558
0.0047093998
0.0046736486
0.51504557
0.51860834
0.50624143
0.51643477
0.53856803
0.58047074
0.59947207
0.58593799
0.57614724
0.60625855
0.6780083
0.77541997
0.86413681
0.93371686
0.96791317
0.90328423
0.67789105
0.37604443
0.16952669
0.085487335
0.052188539
0.034479919
0.024105915
0.017997473
0.014215712
0.011681425
0.010011542
0.0088372879
0.0079580686
0.0072732111
0.0067243916
0.0062703931
0.0058820049
0.0055608435
0.0053081946
0.0051161353
0.0049740944
0.0048690271
0.0047946879
0.0047403092
0.0047073098
0.0046717825
0.51898748
0.52037283
0.52480461
0.51313508
0.53405675
0.5732208
0.60229045
0.60070822
0.59613293
0.62183381
0.68386463
0.76797039
0.85109738
0.91876554
0.97628571
0.97818845
0.83466768
0.54432574
0.26995925
0.13311716
0.077608477
0.050714976
0.034109116
0.024032675
0.01791926
0.014070795
0.011530045
0.0098945843
0.0087489044
0.0078906159
0.0072214449
0.0066844757
0.0062397624
0.0058577812
0.0055418675
0.0052936545
0.0051052756
0.0049661534
0.0048633337
0.0047906414
0.0047373904
0.0047051412
0.0046698457
0.53155111
0.5222927
0.52453919
0.52870967
0.51817832
0.56489847
0.6004407
0.60986458
0.61138552
0.6335656
0.68602826
0.75717944
0.82521052
0.89165511
0.95951675
1.0061923
0.94524487
0.7107774
0.40253604
0.20155209
0.11683622
0.074411929
0.050197942
0.033977477
0.023928806
0.017759124
0.013852763
0.01134468
0.0097535244
0.0086456277
0.0078138127
0.0071638033
0.0066410726
0.0062067537
0.0058321873
0.0055221479
0.0052787345
0.0050942291
0.0049581147
0.0048575755
0.0047865347
0.0047344084
0.0047029022
0.0046678464
0.55711656
0.53090001
0.52561164
0.52688466
0.52970452
0.52054858
0.59471877
0.61351867
0.62153727
0.64156693
0.68544562
0.74372748
0.79764288
0.85336874
0.92725345
1.0023914
1.0090163
0.85275663
0.55389281
0.29511492
0.170117
0.11040613
0.073962605
0.050241726
0.033947073
0.023756639
0.0175207
0.013585753
0.011139308
0.0096006924
0.0085330564
0.007730803
0.0071020576
0.0065949355
0.0061719158
0.0058055164
0.0055018492
0.0052635273
0.0050830468
0.0049500069
0.0048517695
0.0047823793
0.0047313728
0.0047006018
0.0046657931
0.58647207
0.55087425
0.53188762
0.52827351
0.52690015
0.52731197
0.51957671
0.61225362
0.6263327
0.64583855
0.68268669
0.72910658
0.76964279
0.81384574
0.88243243
0.97604772
1.034816
0.95856852
0.70567881
0.41260002
0.23972546
0.15901952
0.10952971
0.075072055
0.050633477
0.033916294
0.023498433
0.017213377
0.013290101
0.01092357
0.0094427196
0.0084159041
0.0076442489
0.0070379956
0.0065467468
0.0061357312
0.0057780436
0.0054811281
0.0052481199
0.0050717779
0.0049418582
0.0048459334
0.0047781877
0.0047282939
0.0046982492
0.0046636944
0.60703467
0.5771605
0.54633946
0.53415342
0.52974006
0.52413295
0.52119352
0.51475694
0.6261728
0.64633757
0.67795583
0.71451458
0.74385213
0.77702546
0.83558878
0.93166431
1.0299505
1.0270282
0.84172171
0.54628302
0.32679173
0.22037537
0.1583901
0.1121315
0.077109711
0.051194646
0.033815255
0.023149768
0.016846659
0.012980288
0.010704253
0.0092837726
0.0082976422
0.0075564756
0.0069722025
0.0064972476
0.0060986174
0.0057500175
0.0054601256
0.0052325938
0.0050604692
0.0049336961
0.0048400847
0.0047739725
0.004725182
0.0046958534
0.0046615588
0.62190709
0.59911796
0.56836533
0.54432168
0.53721721
0.52960854
0.51820705
0.51114145
0.50572255
0.64325968
0.67140497
0.70084069
0.72267599
0.74720321
0.79323077
0.88078056
0.99849707
1.0616291
0.95175819
0.68386151
0.42999644
0.29449275
0.22016204
0.16403035
0.11702861
0.079591817
0.051747004
0.033600211
0.022716667
0.016428843
0.01266616
0.010486301
0.0091267355
0.0081806172
0.007468505
0.0069056323
0.0064470217
0.0060609453
0.0057216526
0.0054389691
0.0052170236
0.0050491643
0.0049255473
0.0048342409
0.004769746
0.0047220467
0.0046934235
0.0046593952
0.63732162
0.61477779
0.58994635
0.56150434
0.54512341
0.54061729
0.5275846
0.5088624
0.49706266
0.49223462
0.66354945
0.68898632
0.70795386
0.72769509
0.76145381
0.83203733
0.95070118
1.0627083
1.0347636
0.81282808
0.54532033
0.38002721
0.29420929
0.23087991
0.17393119
0.12329929
0.082070345
0.052160635
0.03324998
0.022209831
0.015973424
0.012354664
0.010273234
0.0089736113
0.0080662796
0.0073811026
0.0068390291
0.0063965561
0.0060230138
0.0056931363
0.0054177728
0.0052014771
0.0050379039
0.0049174371
0.0048284183
0.0047655191
0.0047188976
0.0046909694
0.0046572174
0.65546135
0.6298819
0.60640269
0.58128892
0.55768003
0.54870589
0.54395723
0.52344972
0.49596768
0.47892104
0.4741689
0.68018427
0.70085798
0.7199132
0.7441578
0.79374974
0.89660901
1.0344972
1.0858484
0.93331696
0.66653918
0.47527415
0.37825625
0.31183073
0.24900466
0.1866618
0.13005234
0.084333992
0.052351719
0.032749333
0.02164052
0.015506963
0.012050523
0.010067443
0.0088258513
0.0079545514
0.0072948996
0.0067729192
0.0063462251
0.0059850707
0.0056646309
0.0053966367
0.0051860158
0.005026726
0.0049093881
0.00482263
0.0047613022
0.0047157464
0.0046885024
0.0046550377
0.67599503
0.64890632
0.62276321
0.59874593
0.57502505
0.55780932
0.55485681
0.54685943
0.5170185
0.47958943
0.45666938
0.45222698
0.70170748
0.72316236
0.74171677
0.77165249
0.84734096
0.98576378
1.098863
1.0357589
0.79524802
0.57786817
0.4696019
0.4041125
0.34129099
0.27232392
0.20087672
0.13650134
0.08619913
0.052264583
0.032080378
0.021024604
0.015053522
0.011758632
0.0098709137
0.0086825262
0.0078459648
0.0072106141
0.0067076456
0.0062963091
0.0059473257
0.0056362739
0.0053756493
0.0051706952
0.0050156628
0.0049014174
0.0048168887
0.0047571111
0.0047126078
0.0046860305
0.0046528525
0.70998088
0.6775442
0.64585889
0.6181384
0.59386122
0.57282325
0.56245705
0.56312188
0.54890571
0.50809042
0.45979549
0.43093117
0.42699544
0.73516243
0.75135515
0.76690122
0.81232065
0.92893771
1.0778391
1.1033211
0.9264395
0.6880614
0.56507044
0.50400758
0.447673
0.37926704
0.29871972
0.21522977
0.14222278
0.087500842
0.051731732
0.031290562
0.02039619
0.01462376
0.011482498
0.0096813872
0.0085441267
0.0077408453
0.0071287694
0.0066434091
0.0062470258
0.0059099429
0.0056081831
0.005354889
0.0051555611
0.0050047374
0.0048935417
0.0048112166
0.0047529669
0.0047094886
0.0046835331
0.0046501935
0.75291648
0.72354219
0.68504521
0.64814398
0.61803098
0.59361125
0.57597114
0.5716402
0.5728082
0.54960822
0.49642497
0.43694175
0.40237962
0.39597541
0.76864976
0.77616556
0.7964678
0.8771457
1.0325201
1.1304409
1.0398613
0.81555372
0.6561327
0.60729511
0.56378724
0.50413822
0.42271269
0.32591734
0.22845569
0.14675325
0.087979989
0.050933003
0.030466552
0.019788865
0.014221696
0.011218201
0.0094991145
0.0084109502
0.007639343
0.0070494706
0.0065806703
0.0061985229
0.0058730607
0.0055804613
0.005334418
0.0051406452
0.0049939729
0.0048857933
0.0048056447
0.0047488739
0.0047063475
0.0046804225
0.0046474579
0.78859255
0.7724433
0.74099429
0.69777438
0.65646555
0.62385504
0.59930032
0.58501188
0.58473282
0.58299322
0.54852817
0.48149324
0.41095901
0.36831442
0.3583818
0.79383357
0.79872181
0.84146129
0.97523154
1.1203638
1.1198523
0.94642403
0.7644566
0.69535112
0.68552581
0.64280933
0.56969262
0.46829179
0.35158706
0.23950877
0.149793
0.08771437
0.049972998
0.029642461
0.019212914
0.013836788
0.010965234
0.0093244743
0.0082830802
0.0075414789
0.006972759
0.0065198444
0.0061509084
0.0058367942
0.0055531858
0.0053142779
0.0051259796
0.004983417
0.0048782171
0.0048001725
0.0047447477
0.0047019516
0.0046772507
0.0046446716
0.81379289
0.80619746
0.78931902
0.75801349
0.71445698
0.67074735
0.63581651
0.6112139
0.59946185
0.6005225
0.59285502
0.54369371
0.46254545
0.37946437
0.32819805
0.31357218
0.81369167
0.82736056
0.91975855
1.0818995
1.1587484
1.0619418
0.88590433
0.79413018
0.78564365
0.79258052
0.73752793
0.64025739
0.51238706
0.37370903
0.24772974
0.15127344
0.086857433
0.048902832
0.028818457
0.018643842
0.013467297
0.0107238
0.0091574858
0.0081604172
0.007447186
0.0068986272
0.006460962
0.006104287
0.005801224
0.0055264058
0.0052945115
0.0051116348
0.0049731334
0.0048708051
0.0047946535
0.0047385345
0.0046975405
0.0046740394
0.0046418361
0.83426424
0.83038374
0.81709749
0.79938669
0.77102673
0.73108405
0.68845024
0.65278256
0.62831194
0.61781574
0.61747382
0.59927149
0.5346521
0.43739669
0.34151076
0.28176048
0.26153286
0.83334987
0.87897717
1.0270479
1.1576868
1.145127
1.0081586
0.90162272
0.89053372
0.91838607
0.92609055
0.84365115
0.71090088
0.55160192
0.39091629
0.25287432
0.15130104
0.08553081
0.047677183
0.027944004
0.018082913
0.013113928
0.010493253
0.0089979497
0.0080427196
0.0073563512
0.0068270434
0.0064040311
0.0060588388
0.0057663902
0.0055001738
0.005275221
0.0050976961
0.0049631025
0.0048633239
0.0047855831
0.0047324024
0.0046931799
0.0046707786
0.0046389584
0.85281787
0.85352192
0.83881161
0.81772527
0.79962129
0.77667568
0.74411566
0.70636268
0.67220011
0.64838766
0.63786246
0.63212037
0.60216443
0.51914985
0.40423202
0.29634937
0.22962595
0.20387902
0.86112573
0.9693272
1.1247279
1.1865188
1.1134641
1.0119389
0.99423465
1.0401655
1.0929734
1.0818734
0.9536817
0.77544257
0.58298254
0.40260391
0.25512211
0.15001814
0.083574153
0.046243
0.027039233
0.017535796
0.012776197
0.010272535
0.0088454237
0.0079297008
0.0072688552
0.0067579681
0.0063490345
0.0060148802
0.0057323396
0.0054746293
0.005256515
0.0050841285
0.0049529692
0.0048502099
0.0047767564
0.0047264579
0.0046888423
0.0046674769
0.0046360402
0.86712342
0.87726136
0.86609693
0.83543593
0.80575328
0.78785677
0.77232115
0.75017406
0.72070815
0.69072666
0.66852974
0.65573551
0.64422071
0.59896092
0.49436323
0.36108209
0.24409679
0.17437602
0.14514874
0.92152887
1.0718685
1.1860717
1.1852194
1.1142519
1.0917209
1.1462582
1.2353319
1.3043626
1.2488868
1.0563599
0.82781845
0.60526589
0.40885366
0.25405077
0.14702797
0.081081835
0.044679433
0.026127336
0.017005607
0.012452863
0.010060335
0.0086993571
0.0078211002
0.0071845793
0.0066913382
0.0062959301
0.0059724134
0.0056992421
0.0054499075
0.0052383374
0.0050704177
0.004934045
0.0048376062
0.0047683483
0.0047206366
0.0046845425
0.0046641285
0.0046330876
0.89590376
0.89025064
0.89952586
0.86868698
0.8191133
0.78043991
0.76317097
0.75627703
0.7465553
0.72798705
0.70501953
0.68442387
0.67071797
0.65125297
0.58596251
0.45654475
0.30656141
0.18692191
0.12141066
0.092974698
1.0123964
1.1521912
1.2140993
1.1936253
1.1779187
1.2305138
1.3365865
1.4609928
1.5318275
1.4067542
1.1417539
0.86633249
0.61744529
0.40815568
0.24971879
0.14286934
0.078279046
0.043055233
0.025224303
0.016493293
0.012141741
0.0098570934
0.008559317
0.007716688
0.0071033939
0.006627072
0.006244693
0.0059315101
0.0056672571
0.0054259198
0.0052199742
0.0050435608
0.0049160437
0.0048257739
0.0047602433
0.0047149612
0.0046802718
0.0046607395
0.0046301037
0.95907392
0.89435603
0.92116303
0.91465091
0.86050533
0.79065983
0.74268167
0.72587011
0.72788836
0.73144851
0.72573636
0.71135037
0.69502307
0.68042067
0.6491116
0.55775352
0.40170114
0.24145199
0.13044257
0.077731068
0.054949407
1.0976382
1.2014796
1.2360901
1.2442081
1.2921563
1.3956406
1.5401279
1.6844542
1.7345622
1.5331741
1.2014162
0.88554014
0.61791308
0.40221117
0.24331809
0.13805058
0.075337216
0.04141774
0.024339557
0.015997458
0.011839872
0.0096622653
0.0084249275
0.0076162328
0.007025162
0.0065651191
0.0061953972
0.0058922289
0.0056362443
0.0054017356
0.0051830957
0.0050181789
0.0048993456
0.0048145171
0.004752475
0.0047094084
0.0046760358
0.0046573084
0.0046270936
1.035943
0.92454188
0.91543219
0.95151266
0.92125307
0.84213761
0.75209884
0.6943261
0.67737805
0.68764771
0.7044286
0.71281822
0.70901276
0.69803986
0.68037633
0.63167267
0.50735045
0.32775866
0.17137905
0.082941796
0.047634858
0.033039485
1.1578026
1.2362887
1.2787918
1.3298153
1.4223368
1.5557448
1.7138607
1.8602152
1.8802748
1.6114874
1.2268561
0.8875516
0.61060476
0.3930477
0.23579718
0.13295481
0.072363927
0.03979679
0.023476291
0.015514728
0.011545234
0.0094754609
0.0082958241
0.0075195188
0.0069497974
0.0065055556
0.0061481039
0.0058544338
0.0056050638
0.0053538448
0.0051482843
0.0049948254
0.004883644
0.0048038732
0.0047450042
0.0047039785
0.0046718317
0.0046538403
0.0046240607
1.097738
0.98067642
0.91445231
0.95119794
0.97719488
0.92022786
0.81541748
0.7058742
0.63797593
0.62011446
0.63740043
0.66772714
0.68990522
0.69593383
0.68891056
0.66432302
0.59006437
0.42869983
0.2392031
0.10782788
0.049850844
0.03044263
0.022230921
1.2009537
1.27304
1.33927
1.4241665
1.5340362
1.6641612
1.8194975
1.9745422
1.9675796
1.6426136
1.2278724
0.87880322
0.59874231
0.38228047
0.22783515
0.1278207
0.069420117
0.038206933
0.022632346
0.015042677
0.011256551
0.0092962967
0.0081716924
0.0074264103
0.0068773697
0.0064484481
0.0061026298
0.0058169299
0.005545952
0.0053085826
0.005116317
0.0049730501
0.0048689806
0.0047937735
0.0047378215
0.0046986629
0.0046676638
0.0046503356
0.0046209968
1.1425814
1.03574
0.94356103
0.93094722
0.99330351
0.99731144
0.91279376
0.78154061
0.65405781
0.57664156
0.55739873
0.58128169
0.6234126
0.65454272
0.66826168
0.66181164
0.62377159
0.51434453
0.32356
0.15093593
0.061779052
0.031281885
0.021559339
0.016680877
1.23304
1.3148532
1.4000225
1.4902623
1.5845642
1.7004832
1.8712324
2.0568941
2.0199004
1.64284
1.2149463
0.86433922
0.58486
0.37104059
0.21983395
0.12277139
0.066530515
0.036648467
0.0218058
0.014579889
0.010978884
0.0091243916
0.0080523384
0.0073369629
0.0068079535
0.0063935533
0.0060574736
0.0057439671
0.005490327
0.0052669291
0.0050865869
0.0049529122
0.0048552431
0.0047841924
0.0047309116
0.0046934583
0.00466353
0.0046467861
0.0046178965
1.1709922
1.0774605
0.98518018
0.93347934
0.97012289
1.0360665
1.0123816
0.89877516
0.74088504
0.59828201
0.51361527
0.49338517
0.52204856
0.56778659
0.60455968
0.62171271
0.61011574
0.54908531
0.40076729
0.20786413
0.083447293
0.035750536
0.021916454
0.016614917
0.013396971
1.2596772
1.3464948
1.4261081
1.4942177
1.5712415
1.7020839
1.91549
2.1365759
2.0468175
1.624599
1.1956987
0.84790419
0.57068594
0.35995264
0.21199125
0.11783866
0.063689278
0.03511985
0.020995673
0.014124482
0.010712217
0.008959536
0.007937814
0.0072512715
0.0067412337
0.0063389501
0.0059656614
0.0056759084
0.0054393205
0.0052280428
0.0050592206
0.0049342423
0.00484238
0.0047750967
0.004724261
0.0046883574
0.0046593966
0.004643211
0.0046147597
1.1863908
1.1026822
1.0209968
0.9581381
0.95475964
1.0244988
1.0768264
1.0220728
0.87629507
0.69339359
0.54017316
0.45186611
0.4285827
0.45561137
0.50077541
0.53827062
0.55245504
0.5276656
0.43567448
0.26583717
0.11339911
0.043988643
0.023440985
0.01680126
0.013541504
0.011257872
1.2689328
1.3409202
1.3931765
1.4451905
1.5390216
1.7063941
1.9751776
2.2182695
2.0513669
1.5976762
1.175629
0.83195796
0.55710911
0.34925351
0.20433298
0.11298942
0.060891847
0.03362019
0.020199953
0.013675306
0.010456815
0.008801789
0.0078282144
0.0071689235
0.0066746927
0.0062220184
0.0058809803
0.005613611
0.005391712
0.005192156
0.0050340083
0.0049169531
0.0048303302
0.004766457
0.0047178528
0.0046832981
0.0046552636
0.0046396178
0.0046115917
1.1813032
1.1121376
1.044283
0.98730029
0.96464478
1.0051775
1.086367
1.1142259
1.0239849
0.84252411
0.6385963
0.48118147
0.38584608
0.36083727
0.38367153
0.42342622
0.4553328
0.45905983
0.41348518
0.29628698
0.14680617
0.055880351
0.02611874
0.017359691
0.013702647
0.011435269
0.0098277206
1.2423552
1.2826872
1.3202953
1.3894441
1.5147696
1.7275597
2.0584927
2.2958437
2.0377369
1.5709691
1.1587887
0.81761564
0.54434847
0.33890025
0.1967931
0.10819702
0.058138997
0.032146436
0.019417924
0.013233852
0.010213251
0.0086512524
0.0077230083
0.007086491
0.0065228211
0.0061157642
0.0058042604
0.0055560087
0.0053477384
0.0051590397
0.0050108454
0.0049009418
0.0048190381
0.0047582387
0.004711575
0.0046783084
0.0046511255
0.0046360123
0.004608399
1.1458985
1.102657
1.0543382
1.0118102
0.98938851
1.0083735
1.0765397
1.1498376
1.1458981
1.0137211
0.79428709
0.57599669
0.40894061
0.31835925
0.29322241
0.30887046
0.33846666
0.35839415
0.34580516
0.2803142
0.16657085
0.070167319
0.029855385
0.018242047
0.013947892
0.011584025
0.009971453
0.0088172738
1.1741074
1.2005958
1.2511658
1.3473566
1.507741
1.7714102
2.1659912
2.3612674
2.0148173
1.5527676
1.1466482
0.80508486
0.53231569
0.32870705
0.18931618
0.10344174
0.055422852
0.030698078
0.018650245
0.012811221
0.0099817904
0.0085072585
0.007617205
0.0068816639
0.0063880015
0.006020662
0.005733964
0.0055030365
0.0053070407
0.0051286195
0.0049895928
0.0048861137
0.004808442
0.004750262
0.0047054596
0.0046733804
0.0046469873
0.004632402
0.0046051874
1.0874591
1.0732761
1.0526865
1.0311767
1.0203436
1.033966
1.0835222
1.1583459
1.2105928
1.1672567
0.98545249
0.72468359
0.48902018
0.33327653
0.25391735
0.22883669
0.23511539
0.25106785
0.25533085
0.22714559
0.15865065
0.079811726
0.034387529
0.01936479
0.014244966
0.011719739
0.010074025
0.0089217799
0.0080520306
1.1014312
1.132473
1.2021456
1.3245369
1.5199756
1.8405284
2.2933434
2.4059477
1.9958978
1.5455771
1.1387615
0.79398077
0.52062782
0.318489
0.18182245
0.098701544
0.052741801
0.029276857
0.017898574
0.012409029
0.0097616684
0.0083616956
0.0073208301
0.0067073233
0.0062692599
0.0059344055
0.0056698623
0.0054542527
0.0052694899
0.0051007704
0.0049701143
0.0048723659
0.0047982568
0.0047425992
0.0046994826
0.0046685174
0.0046428574
0.004628793
0.0046019636
1.0453546
1.0479739
1.0495307
1.051786
1.0583283
1.0769121
1.1163369
1.1777587
1.2416765
1.2638827
1.1746209
0.91538484
0.61742406
0.39370504
0.26149464
0.1957635
0.17065397
0.16741476
0.16952283
0.16040316
0.12721159
0.077081571
0.037686992
0.020637554
0.014554302
0.011803256
0.010132701
0.0089889782
0.0081224531
0.0074478629
1.0527683
1.0902351
1.1746632
1.3196531
1.5510031
1.936004
2.428543
2.4283451
1.9899252
1.5482168
1.1339243
0.78353162
0.50886853
0.30804638
0.17425011
0.093971198
0.050098938
0.027886016
0.01716545
0.012027296
0.0095380385
0.0078829618
0.007087209
0.0065575711
0.0061628487
0.00585647
0.0056112812
0.0054094037
0.0052349085
0.0050753627
0.0049522562
0.0048592644
0.0047885946
0.0047352083
0.0046936434
0.004663726
0.0046387417
0.0046251931
0.0045987348
1.0333142
1.0530415
1.0741388
1.0927853
1.1125221
1.1391669
1.1746907
1.222908
1.278157
1.3191522
1.3073314
1.1222591
0.79065297
0.49168099
0.30210211
0.19857356
0.14558631
0.12114518
0.11107217
0.10386244
0.089296256
0.063437448
0.037031185
0.02155562
0.014858537
0.011829214
0.010122791
0.0090039029
0.0081622334
0.0074859843
0.0069521943
1.0320991
1.0691925
1.1638994
1.329251
1.6005698
2.0562727
2.5470369
2.4399402
2.0015003
1.5584684
1.1306183
0.77292141
0.49660359
0.29724307
0.16656972
0.089258169
0.047500659
0.026530686
0.016450456
0.011637061
0.0086590008
0.0075490595
0.0068951888
0.0064254516
0.0060676753
0.005785833
0.0055578113
0.0053682275
0.0052031341
0.0050522261
0.0049353738
0.0048469928
0.0047793787
0.0047280814
0.0046879443
0.004659011
0.0046346499
0.0046216105
0.0045955061
1.0433908
1.0840664
1.1286623
1.1677842
1.2002852
1.2286872
1.2610608
1.2974785