/*--------------------------------*- C++ -*----------------------------------*\
  =========                 |
  \\      /  F ield         | OpenFOAM: The Open Source CFD Toolbox
   \\    /   O peration     | Website:  https://openfoam.org
    \\  /    A nd           | Version:  8
     \\/     M anipulation  |
\*---------------------------------------------------------------------------*/
FoamFile
{
    version     2.0;
    format      ascii;
    class       volScalarField;
    location    "100.9663773";
    object      p;
}
// * * * * * * * * * * * * * * * * * * * * * * * * * * * * * * * * * * * * * //

dimensions      [0 2 -2 0 0 0 0];

internalField   nonuniform List<scalar> 
9200
(
-0.00048817308
-0.00044679885
-0.00067832059
-0.00039839144
-0.00061404912
-0.001201534
-0.0003405871
-0.00050571152
-0.0011223598
-0.0016784922
-0.00024894706
-0.00036020895
-0.00095857167
-0.0015700491
-0.0022733165
-0.00013394504
-0.00016277249
-0.00072581485
-0.0013740138
-0.0021531779
-0.0029016127
3.055459e-06
6.2131928e-05
-0.00041031667
-0.001101199
-0.0019309457
-0.0027763821
-0.0035883816
0.00014960499
0.00033194076
-4.3517412e-05
-0.00072901968
-0.0016225083
-0.0025422241
-0.0034657838
-0.0043138141
0.00028536191
0.00065956307
0.00039912274
-0.00026823577
-0.0012057757
-0.0022211284
-0.0032306249
-0.0041989197
-0.0050725704
0.00046212026
0.0010855962
0.00094018875
0.00032285203
-0.00069318202
-0.0017806527
-0.0029101309
-0.0039704406
-0.0049711178
-0.0058547102
0.00070594678
0.0015481965
0.0015868235
0.0010267691
-4.0010845e-05
-0.0012364594
-0.002467239
-0.0036631053
-0.0047573645
-0.0057705579
-0.0066509619
0.00096393097
0.0020132762
0.0023374205
0.001849621
0.00074714027
-0.00058311107
-0.0019309899
-0.0032400181
-0.0044757512
-0.0055781292
-0.0065881561
-0.0074511003
0.0012218716
0.0025206666
0.0031826345
0.0028046816
0.001668861
0.00018872895
-0.0012947324
-0.0027358281
-0.0040863759
-0.0053309933
-0.0064243773
-0.0074128593
-0.008244984
0.0014782782
0.0030536771
0.0041257983
0.0038943049
0.0027238496
0.0010919259
-0.00056613942
-0.0021452989
-0.0036282233
-0.0049852463
-0.0062201765
-0.0072827073
-0.0082347818
-0.0090235783
0.0017317869
0.0035750199
0.0051635897
0.0051251613
0.0039246763
0.002129867
0.00026944636
-0.0014803449
-0.0030965883
-0.0045827649
-0.0059251517
-0.007127982
-0.0081428274
-0.009044881
-0.0097788138
0.0019763783
0.0040363174
0.0062827123
0.00650531
0.0052773678
0.0033090679
0.001211531
-0.00074261257
-0.0025136157
-0.0041181312
-0.005581891
-0.0068880527
-0.0080432588
-0.0089958963
-0.0098348171
-0.010503006
0.0022059095
0.0043531762
0.0074645893
0.008036265
0.0067916048
0.0046330829
0.0022564188
6.1230565e-05
-0.0018856328
-0.0036166589
-0.0051802161
-0.0066034987
-0.0078632976
-0.0089581097
-0.0098337479
-0.010596744
-0.011189043
0.0023825265
0.0043885825
0.0086718859
0.0097163681
0.008475333
0.0061043248
0.0034107102
0.0009326905
-0.0012288874
-0.0030896003
-0.0047448023
-0.0062586115
-0.0076405501
-0.0088450307
-0.0098652102
-0.010648444
-0.011322895
-0.011830296
0.002534651
0.0041833274
0.0098442815
0.011527438
0.010332181
0.0077252404
0.0046749543
0.0018569746
-0.00055601568
-0.0025591276
-0.0042905706
-0.00587605
-0.0073514545
-0.008690475
-0.0098281194
-0.010756962
-0.01143201
-0.012006091
-0.0124209
0.0025802164
0.003622505
0.011030107
0.013421367
0.012353702
0.0094961446
0.0060492746
0.0028238459
0.00011295003
-0.002052117
-0.003845991
-0.0054682239
-0.0070128291
-0.0084613246
-0.009753075
-0.010807686
-0.011625136
-0.012176926
-0.012640572
-0.012956546
0.0025184435
0.0025442921
0.012203331
0.015417887
0.014506884
0.011411218
0.0075234361
0.0038248456
0.00075533353
-0.0016009791
-0.0034439732
-0.0050623836
-0.0066304325
-0.0081658704
-0.0095963645
-0.010828645
-0.011775873
-0.012461366
-0.012876547
-0.013221498
-0.013435003
0.0024623419
0.0012880266
0.013261545
0.017531873
0.016758185
0.013452968
0.0090849896
0.0048502338
0.0013497499
-0.0012418567
-0.0031252776
-0.0046898971
-0.0062243131
-0.0077992184
-0.0093562152
-0.01076594
-0.011908656
-0.012722122
-0.013257986
-0.01352481
-0.013744336
-0.013854844
0.0024553665
3.6939205e-05
0.014269891
0.019592626
0.019150101
0.015574865
0.010722291
0.0058884858
0.0018755772
-0.001013049
-0.0029374523
-0.0043914994
-0.0058171389
-0.0073722013
-0.009015645
-0.010609115
-0.011961708
-0.01298003
-0.013637215
-0.014007435
-0.014116219
-0.014205612
-0.014212514
0.0026178745
-0.0010487494
0.015459196
0.021456591
0.021644943
0.01775722
0.012420377
0.0069273956
0.0023140238
-0.00095365913
-0.0029349593
-0.0042171515
-0.0054391869
-0.0068978142
-0.0085751382
-0.010331368
-0.011916355
-0.013167632
-0.014033718
-0.014512084
-0.014702355
-0.014646407
-0.014604434
-0.014502302
0.0030077301
-0.0018020894
0.016934994
0.023165574
0.024083015
0.020009414
0.014143501
0.0079551452
0.0026483839
-0.0011013776
-0.0031788568
-0.0042268327
-0.0051289257
-0.0063841911
-0.0080259889
-0.0099119915
-0.0117322
-0.013259419
-0.01437544
-0.015059262
-0.015337435
-0.015336479
-0.015112525
-0.014942757
-0.014723432
0.0035663471
-0.0021116397
0.018522024
0.02465704
0.026246741
0.022255505
0.015865315
0.0089531117
0.0028650953
-0.0014908607
-0.0037350566
-0.004491432
-0.0049390613
-0.0058458368
-0.0073579013
-0.0093027608
-0.01137073
-0.01320516
-0.014632819
-0.015573444
-0.016044198
-0.016104562
-0.015904679
-0.01551176
-0.015220607
-0.01488709
0.0042038013
-0.0019181877
0.019727871
0.025809445
0.028014728
0.024388955
0.017559792
0.0098996306
0.0029413646
-0.0021507513
-0.0046723053
-0.0050926335
-0.0049325065
-0.005317504
-0.0065729231
-0.0084992379
-0.010796794
-0.012962423
-0.014751722
-0.016023566
-0.016745549
-0.01697625
-0.016805649
-0.016402487
-0.015840106
-0.015429189
-0.014995904
0.0048311355
-0.0016447685
0.02022222
0.026582226
0.029428531
0.026316384
0.019147815
0.010761631
0.0028974917
-0.0031132698
-0.0060617075
-0.0061221985
-0.005180268
-0.0048446421
-0.0056740231
-0.0075040361
-0.0099700213
-0.012499234
-0.014688816
-0.016355224
-0.017411356
-0.017874702
-0.01784423
-0.017433979
-0.016827407
-0.016097377
-0.015568241
-0.015047888
0.0053939562
-0.0014663883
0.020294879
0.026927144
0.030506335
0.027913176
0.020575287
0.011476024
0.0026708979
-0.0043664175
-0.0079630389
-0.0076927756
-0.0057614461
-0.0044767242
-0.0046808652
-0.006294971
-0.0088536926
-0.01176608
-0.01440941
-0.016526256
-0.01798967
-0.018772417
-0.018944706
-0.018638041
-0.017984555
-0.017178801
-0.016289848
-0.015644722
-0.015043368
0.0058697249
-0.001329867
0.020048633
0.026805318
0.031182756
0.029128407
0.021799589
0.012012336
0.0021759371
-0.0059996593
-0.010428065
-0.0099191213
-0.00678901
-0.0042715876
-0.0036146711
-0.0048564859
-0.0074401749
-0.010705745
-0.013863872
-0.016503082
-0.018440957
-0.019621561
-0.020083168
-0.019940525
-0.019349183
-0.018454179
-0.017455046
-0.016416922
-0.015663248
-0.014987676
0.0062778441
-0.0013339052
0.019379715
0.026227666
0.031378142
0.029974182
0.022765578
0.012364675
0.0014471421
-0.0081139704
-0.013609299
-0.012916014
-0.0083633453
-0.0042941202
-0.0025024583
-0.003184529
-0.0057010272
-0.0092752623
-0.012988955
-0.016234828
-0.018729416
-0.020386396
-0.021216658
-0.021321699
-0.020849156
-0.019971566
-0.018841451
-0.017656829
-0.016480895
-0.015627556
-0.014885945
0.0065086973
-0.0015067252
0.018347275
0.025259989
0.031061964
0.03043779
0.023430962
0.012511644
0.00056804523
-0.0106182
-0.017596016
-0.016836607
-0.010614466
-0.0046485868
-0.0013761963
-0.0012683746
-0.0036089514
-0.0074431903
-0.011726079
-0.015653007
-0.018812187
-0.021033446
-0.022313829
-0.022743522
-0.022468649
-0.021660732
-0.020501838
-0.019146712
-0.017787466
-0.016485388
-0.015541028
-0.014741792
0.0065102121
-0.0017400464
0.016568949
0.023968795
0.030265716
0.030470798
0.02377313
0.012464492
-0.0004033014
-0.01337304
-0.022364555
-0.021839603
-0.013639437
-0.0054633524
-0.0002835984
0.0008803568
-0.0011330952
-0.0051795522
-0.01003981
-0.014704727
-0.018631146
-0.021523423
-0.023345143
-0.024179332
-0.024174693
-0.023508988
-0.022368144
-0.020938757
-0.019370607
-0.017850081
-0.016433958
-0.015407715
-0.014557538
0.0062674379
-0.0019673327
0.014291978
0.021901452
0.029081902
0.030071545
0.023800881
0.012234044
-0.0014245092
-0.016418818
-0.028145888
-0.028150989
-0.017538094
-0.0067739461
0.00066886323
0.0032360536
0.0017345982
-0.0024539181
-0.0078970675
-0.013354802
-0.018133287
-0.021813862
-0.024279508
-0.025604721
-0.02594507
-0.025488259
-0.024431952
-0.022967077
-0.021280253
-0.019515379
-0.017848096
-0.016330175
-0.015231524
-0.014335793
0.0057718964
-0.002259955
0.01150077
0.019414451
0.026975306
0.029324258
0.023551144
0.0118216
-0.0025187084
-0.020011198
-0.03495716
-0.035667642
-0.022468413
-0.0086419298
0.0015166258
0.0057262249
0.0049855706
0.00075076828
-0.0052685634
-0.011572899
-0.017285036
-0.021864539
-0.025084352
-0.02699591
-0.027760762
-0.027580531
-0.026668445
-0.025230365
-0.023458144
-0.021529435
-0.019584304
-0.017785319
-0.01617785
-0.015016031
-0.014080347
0.0050291617
-0.0027076057
0.0082761978
0.01631658
0.02437333
0.027858016
0.023110457
0.011203609
-0.0037356577
-0.024331787
-0.042556355
-0.044200296
-0.028647417
-0.01157585
0.002235239
0.0083767137
0.0085695761
0.004440819
-0.0021344192
-0.0093336734
-0.016061978
-0.021646093
-0.025734236
-0.028333558
-0.02960557
-0.029771335
-0.02906351
-0.027704587
-0.025901159
-0.023840097
-0.021689114
-0.019581272
-0.017665878
-0.015980944
-0.014764907
-0.013795124
0.0040588865
-0.003353202
0.0047171151
0.012622774
0.020986317
0.026091112
0.02224876
0.010376601
-0.0056286398
-0.029451737
-0.050389676
-0.05318955
-0.036389137
-0.015950749
0.0024019787
0.011182226
0.012470579
0.0085764288
0.0015086622
-0.0066217897
-0.01444669
-0.021140417
-0.026212661
-0.029603165
-0.031469291
-0.032050539
-0.031605961
-0.030378711
-0.02859101
-0.026444329
-0.024115663
-0.021763123
-0.019510715
-0.017494089
-0.015743521
-0.014481826
-0.013483829
0.0029297517
-0.0040181763
0.0010206677
0.0083569726
0.016853439
0.023555442
0.021447601
0.0094673673
-0.008272613
-0.03432319
-0.057281855
-0.060997182
-0.044859599
-0.02068831
0.0019041651
0.013844024
0.016735483
0.013098246
0.0056372877
-0.0034374253
-0.012431095
-0.020338495
-0.026512601
-0.030802056
-0.033350537
-0.034415677
-0.034289555
-0.033245024
-0.031517219
-0.029326727
-0.026861216
-0.024288752
-0.021756136
-0.019377432
-0.01727445
-0.015469643
-0.014170467
-0.013150003
0.0017663662
-0.0044584173
-0.0026819894
0.0036563217
0.011974366
0.020229523
0.020071166
0.0088745857
-0.010207014
-0.038254945
-0.062559648
-0.066918408
-0.051359825
-0.024873398
0.0012662085
0.016202753
0.021197664
0.018041821
0.010190156
0.00020016797
-0.010021017
-0.019240773
-0.026636411
-0.031937059
-0.03525759
-0.036872885
-0.037116449
-0.036296622
-0.034677205
-0.032477999
-0.029913366
-0.027155703
-0.024364339
-0.021673346
-0.019186422
-0.01701147
-0.015163339
-0.013834407
-0.012796967
0.00066675476
-0.0046867107
-0.0063570524
-0.0012685856
0.0064037225
0.01616614
0.018089724
0.007879306
-0.011545328
-0.040200427
-0.066571779
-0.071433143
-0.056682575
-0.028101754
0.0011314868
0.018594139
0.025587443
0.023361173
0.015118764
0.0042592048
-0.0072297265
-0.017855855
-0.026594502
-0.033024964
-0.037210487
-0.039440592
-0.040097646
-0.039538686
-0.03805824
-0.035897872
-0.033264862
-0.030355064
-0.02733345
-0.024348254
-0.021520361
-0.018942831
-0.016709662
-0.014828514
-0.013477077
-0.012427816
-0.0047567893
-0.00032471453
-0.0098622038
-0.0063225433
0.00050949808
0.011407257
0.015710672
0.0065403096
-0.013236396
-0.041212689
-0.067769532
-0.074985759
-0.060394401
-0.029517578
0.0016443291
0.021317515
0.029826717
0.028837907
0.020398865
0.0086583071
-0.0041014555
-0.016204833
-0.026404964
-0.034090135
-0.039240053
-0.042148033
-0.043255052
-0.042982639
-0.041665999
-0.039569806
-0.036908556
-0.033878782
-0.030657067
-0.027400709
-0.024246773
-0.021303002
-0.018651798
-0.016373436
-0.01446894
-0.013101737
-0.012045437
-0.01301609
-0.0046624089
-0.0012216263
-0.01132416
-0.0054511152
0.0059338583
0.01292749
0.0047330827
-0.015066307
-0.041335662
-0.06877221
-0.076133453
-0.062318
-0.029725512
0.002588079
0.024140474
0.033880746
0.034098681
0.025881098
0.013351182
-0.00068138282
-0.014319656
-0.026094107
-0.035167148
-0.041391069
-0.045042391
-0.04662539
-0.046649116
-0.045509859
-0.043496193
-0.040834707
-0.037717797
-0.034326548
-0.030826832
-0.027364631
-0.024066539
-0.021027183
-0.018318417
-0.01600707
-0.014088198
-0.012711438
-0.011652478
-0.016230444
-0.015741049
-0.0043899333
-0.0020208559
-0.011510892
-0.00013477538
0.009733524
0.0024232657
-0.01671308
-0.040830843
-0.068510089
-0.07793808
-0.062475356
-0.029511484
0.0037724507
0.026661173
0.037510485
0.03879486
0.031344274
0.018235655
0.0029718713
-0.012223388
-0.025692755
-0.036298161
-0.043718902
-0.048185391
-0.050265781
-0.050578487
-0.049606087
-0.047681959
-0.045036963
-0.041862975
-0.038333935
-0.034617904
-0.030872512
-0.027232753
-0.023814376
-0.020698808
-0.017947645
-0.015614654
-0.013689663
-0.012309018
-0.011251386
-0.017607044
-0.02106512
-0.017967976
-0.0039144268
-0.0027315477
-0.0064533072
0.0063552597
-0.00022065805
-0.017771327
-0.039911235
-0.066974025
-0.077771044
-0.06402516
-0.030108538
0.0049150094
0.028775045
0.040338036
0.042878245
0.03653097
0.023132596
0.0067650735
-0.010002108
-0.025222538
-0.037521802
-0.04628136
-0.051644525
-0.054238178
-0.054819274
-0.053986301
-0.052133742
-0.049512955
-0.046302664
-0.042666785
-0.038766672
-0.034762118
-0.030802759
-0.027012931
-0.023497127
-0.020323673
-0.017544254
-0.015200054
-0.01327648
-0.011897105
-0.010844387
-0.012477852
-0.023374763
-0.025597523
-0.019708167
-0.0032196332
-0.0033686143
0.0028131668
-0.0029628776
-0.018107382
-0.038556299
-0.064249154
-0.075901989
-0.063955994
-0.03228189
0.0033755492
0.030304594
0.04229608
0.046334793
0.041001648
0.027895584
0.010597243
-0.0077331655
-0.024752387
-0.038867445
-0.04913454
-0.055495242
-0.058618815
-0.059428904
-0.058683923
-0.056868191
-0.054257893
-0.051024892
-0.047310079
-0.043258705
-0.039027282
-0.034769075
-0.030626611
-0.026713083
-0.023121573
-0.019907379
-0.01711276
-0.014766897
-0.012851592
-0.011478127
-0.010433495
-0.00097724258
-0.017889837
-0.02868722
-0.029630401
-0.020989274
-0.0022870562
-0.0039554791
-0.0054640857
-0.017928109
-0.036654601
-0.060247432
-0.072453727
-0.062349977
-0.033707693
0.00072877872
0.028214518
0.043488561
0.048891982
0.044534332
0.032371009
0.014368564
-0.0054494841
-0.024373119
-0.040381748
-0.052328599
-0.05982543
-0.063502598
-0.064486077
-0.063748238
-0.06190271
-0.059270607
-0.056013222
-0.052242476
-0.048075496
-0.04365208
-0.039126987
-0.034649061
-0.030353136
-0.026341067
-0.022694283
-0.019455261
-0.016657446
-0.014318624
-0.012417746
-0.011054265
-0.010020488
-0.0075007299
-0.0051397045
-0.022907737
-0.033570475
-0.033007553
-0.021879994
-0.0010969476
-0.0045281791
-0.017365328
-0.034093793
-0.054956551
-0.067534504
-0.059310508
-0.034196805
-0.0022158933
0.025140562
0.041390045
0.050450136
0.047142345
0.036316875
0.017958095
-0.0032008645
-0.024102804
-0.0421834
-0.055917541
-0.064717431
-0.068999447
-0.07008489
-0.06924225
-0.067266995
-0.064550841
-0.061249715
-0.057437564
-0.053189663
-0.048616262
-0.043860474
-0.039077444
-0.034412354
-0.02999137
-0.025904555
-0.022221556
-0.018972417
-0.016182423
-0.013858476
-0.01197737
-0.010627383
-0.0096069961
-0.016268083
-0.0086903843
-0.0093659309
-0.027656381
-0.038003823
-0.035729497
-0.022456397
0.00037358128
-0.0051177763
-0.03079155
-0.048606956
-0.061262712
-0.054936008
-0.033658527
-0.0051921014
0.020464932
0.038736909
0.048818436
0.051256369
0.039539314
0.021283007
-0.0010632497
-0.023948339
-0.044312208
-0.060033303
-0.070255293
-0.075222775
-0.07633751
-0.075242857
-0.072998707
-0.070102239
-0.066714977
-0.062862249
-0.058566111
-0.053888511
-0.048948479
-0.043896612
-0.038890205
-0.034069102
-0.029550132
-0.025410918
-0.021709461
-0.018463815
-0.015691592
-0.01338924
-0.011532441
-0.0101992
-0.0091946517
-0.026655615
-0.014479395
-0.0090830826
-0.013440284
-0.03204897
-0.041867199
-0.037816322
-0.022792442
0.0019581522
-0.0056762514
-0.041403847
-0.05363401
-0.049331683
-0.031971832
-0.008060122
0.014643074
0.034015876
0.046562202
0.050727121
0.042359071
0.024107309
0.00088810786
-0.023929165
-0.046738562
-0.06474889
-0.076596455
-0.08229872
-0.083365008
-0.081842809
-0.079144718
-0.075932092
-0.072386332
-0.068478878
-0.064158536
-0.05942696
-0.054357419
-0.049086228
-0.043773347
-0.038576486
-0.03362932
-0.029037955
-0.024867341
-0.021164003
-0.017934172
-0.015188184
-0.012913027
-0.011084907
-0.0097718085
-0.0087849241
-0.033387634
-0.021544345
-0.012031178
-0.0088457896
-0.016968015
-0.03599609
-0.045104402
-0.03930936
-0.022798936
0.0033966068
-0.0059901289
-0.044753089
-0.042608469
-0.029049933
-0.010731027
0.0080580729
0.0272495
0.041956981
0.049921995
0.043577683
0.02672263
0.0024890516
-0.024108655
-0.049441917
-0.070066577
-0.08386385
-0.090424346
-0.091309108
-0.089142913
-0.085762925
-0.082050211
-0.078237643
-0.07424157
-0.069913982
-0.065176781
-0.060042938
-0.054612759
-0.049043468
-0.043502703
-0.038147274
-0.033102631
-0.028463205
-0.024281019
-0.020590868
-0.017387256
-0.014674496
-0.012432179
-0.01063771
-0.0093473528
-0.0083783094
-0.034961942
-0.024859088
-0.015595966
-0.0089311197
-0.0080793095
-0.019781569
-0.039375922
-0.047692957
-0.040249323
-0.022340729
0.0043696577
-0.0059062453
-0.034938836
-0.024885578
-0.013096296
0.0010269988
0.018638285
0.034995661
0.046172664
0.045373093
0.028835198
0.0040746071
-0.024559101
-0.05249627
-0.075955363
-0.092121791
-0.099794022
-0.10037128
-0.097262637
-0.092916275
-0.088471581
-0.084242493
-0.080093055
-0.07576688
-0.071072903
-0.065944951
-0.060431503
-0.054668784
-0.048832615
-0.043096361
-0.037613253
-0.032498635
-0.027834407
-0.023658759
-0.019994439
-0.016825619
-0.01415349
-0.011951106
-0.010193798
-0.0089254784
-0.0079545277
-0.026577202
-0.024663854
-0.016336569
-0.0090649322
-0.0052461155
-0.0068931654
-0.022006631
-0.042152244
-0.049615096
-0.040663392
-0.021367622
0.0047059937
-0.0054628005
-0.019614304
-0.014598378
-0.0058997191
0.0085788513
0.025624982
0.039470966
0.044161447
0.032825505
0.006336563
-0.025026916
-0.05580741
-0.082506798
-0.10133326
-0.11055178
-0.11078357
-0.10635348
-0.10068148
-0.095211449
-0.090372907
-0.085975106
-0.081638963
-0.077035809
-0.07199075
-0.066481594
-0.060606247
-0.05453797
-0.04846546
-0.042565638
-0.036985055
-0.031827204
-0.027159589
-0.02300561
-0.019377578
-0.016253124
-0.013631577
-0.011474066
-0.0097509662
-0.0084804436
-0.0075075499
-0.013623765
-0.017622763
-0.014630878
-0.0076706386
-0.0022850858
-0.0010282441
-0.0054719461
-0.023655525
-0.044257612
-0.050832653
-0.040604061
-0.019844642
0.0045127274
-0.0046407817
-0.014818341
-0.011959295
-0.002202454
0.014035219
0.02999816
0.039477223
0.034195116
0.011879262
-0.023586925
-0.059395373
-0.089482977
-0.11167058
-0.12274458
-0.12275573
-0.11659472
-0.10914513
-0.10229246
-0.096595372
-0.091822496
-0.087444449
-0.082973897
-0.078093829
-0.072687694
-0.066797986
-0.060579546
-0.054231066
-0.047953334
-0.041922007
-0.036273906
-0.031097646
-0.026444492
-0.022324787
-0.018745349
-0.015678706
-0.013114511
-0.010995568
-0.0092740815
-0.0080133367
-0.0070487613
-0.013884808
-0.0073996823
-0.0081705141
-0.0048461509
0.00080006503
0.0044051009
0.0034044356
-0.0039801333
-0.024791494
-0.045579165
-0.051292067
-0.04026969
-0.017798999
0.0038580808
-0.0036024584
-0.016795937
-0.012790883
0.00072449633
0.017700958
0.031393124
0.032210725
0.015490585
-0.017790538
-0.059776454
-0.09728564
-0.12282675
-0.13677729
-0.13650856
-0.12815124
-0.11842159
-0.10973471
-0.10287905
-0.097560078
-0.093088687
-0.088782152
-0.084153898
-0.078960876
-0.073171185
-0.066903779
-0.060359768
-0.053758479
-0.047307961
-0.04117772
-0.035490292
-0.030316368
-0.025692689
-0.021622885
-0.018109859
-0.015109698
-0.012592277
-0.010463216
-0.0087786804
-0.0075318333
-0.0065792404
-0.02030728
-0.011467857
-0.0013067184
0.0011531112
0.0044487435
0.0085776822
0.010763503
0.0076824641
-0.002503188
-0.0254791
-0.046002526
-0.051611964
-0.039136858
-0.015631832
0.0029649246
-0.0025574122
-0.022464204
-0.013574924
0.0029637332
0.020040261
0.026775559
0.016051225
-0.013081014
-0.055173852
-0.10056692
-0.13570298
-0.15206753
-0.15242476
-0.14121344
-0.12861907
-0.11758259
-0.10918147
-0.10311457
-0.09846628
-0.094345819
-0.090056731
-0.085198324
-0.079638442
-0.073443891
-0.066804987
-0.059954524
-0.053131226
-0.046542188
-0.04034431
-0.034641196
-0.029487329
-0.024912633
-0.020915915
-0.01748017
-0.014530453
-0.011989868
-0.0099146501
-0.0082652077
-0.0070386456
-0.0060989577
-0.030861768
-0.022547433
-0.0077737563
0.0046652787
0.0096247186
0.012921119
0.015631723
0.016379311
0.011627125
-0.0011451405
-0.025826431
-0.046363138
-0.05098772
-0.037443985
-0.013697104
0.0020549638
-0.0015729737
-0.028199846
-0.013504154
0.0057141792
0.017869226
0.013335045
-0.010666114
-0.050798217
-0.098987074
-0.1432557
-0.16927114
-0.16956094
-0.15570894
-0.1397958
-0.12588941
-0.11546561
-0.10839452
-0.10347214
-0.099541128
-0.095677997
-0.091284433
-0.086099861
-0.080119824
-0.073507709
-0.066503192
-0.059372816
-0.052361996
-0.045668157
-0.039429039
-0.033730911
-0.028621167
-0.024125082
-0.020214474
-0.016833558
-0.01383766
-0.011373667
-0.0093436757
-0.0077401162
-0.0065331917
-0.0056087286
-0.042267784
-0.037815738
-0.023568727
-0.003728179
0.010240338
0.016912064
0.020248674
0.021904178
0.02113994
0.01504276
-5.6945948e-05
-0.026697626
-0.045602209
-0.04992787
-0.034899137
-0.012067743
0.0012014497
-0.00070862952
-0.03120865
-0.011010519
0.0057642269
0.0072695222
-0.010972423
-0.047724775
-0.097064238
-0.14729356
-0.1807034
-0.18838151
-0.17159562
-0.15177394
-0.13468766
-0.12172696
-0.11330671
-0.10797866
-0.10424125
-0.10088565
-0.097093491
-0.092444423
-0.08683933
-0.080397228
-0.073355552
-0.066003565
-0.058626111
-0.051462862
-0.044693053
-0.038436381
-0.032772575
-0.027744007
-0.02334214
-0.019487575
-0.016031228
-0.013133519
-0.010729668
-0.0087622066
-0.0072017684
-0.0060170332
-0.0051088301
-0.049153647
-0.055155479
-0.043055689
-0.023543244
-2.6010171e-05
0.015045102
0.022843965
0.026311626
0.027023398
0.024947512
0.017684086
0.00058289754
-0.027766985
-0.044121904
-0.048222922
-0.031560721
-0.010437526
0.00039659144
-3.3030481e-05
-0.029232432
-0.0088312867
-0.0018000303
-0.014317728
-0.046864105
-0.095570596
-0.14978213
-0.19013393
-0.20181973
-0.18855216
-0.16462366
-0.14384428
-0.12792573
-0.11783434
-0.11186767
-0.10829784
-0.10554241
-0.1024939
-0.098552438
-0.093501165
-0.087393096
-0.080451769
-0.072984886
-0.065314839
-0.057725335
-0.050440313
-0.043621195
-0.037382282
-0.031798371
-0.026869569
-0.022522894
-0.018554369
-0.015219206
-0.012394632
-0.010077078
-0.0081666675
-0.0066522029
-0.0054902425
-0.0045999995
-0.048434976
-0.066701865
-0.066135374
-0.046918186
-0.022485784
0.0030532087
0.018776681
0.027370725
0.031051655
0.031044555
0.02770287
0.019890994
0.00015515212
-0.028436214
-0.04219478
-0.045512325
-0.028082394
-0.0091078299
-0.00028529788
0.00042475988
-0.02500466
-0.01293238
-0.020324857
-0.048306995
-0.094606178
-0.14977837
-0.19628265
-0.21553788
-0.20199322
-0.17763236
-0.15262278
-0.13385876
-0.12186198
-0.11510955
-0.11158157
-0.10949572
-0.10735
-0.10430102
-0.099998547
-0.094406889
-0.087723135
-0.080269162
-0.072400634
-0.064445362
-0.056675252
-0.049297906
-0.042471399
-0.036305711
-0.030823821
-0.025945315
-0.021435592
-0.017612945
-0.014364405
-0.011649848
-0.0094099151
-0.0075601691
-0.0060916885
-0.0049540541
-0.0040827104
-0.041760818
-0.067895901
-0.082939461
-0.075297857
-0.049790409
-0.020853251
0.0053353731
0.021324079
0.030490216
0.034325959
0.033853235
0.030187677
0.020311657
-0.00041033783
-0.02818888
-0.039817038
-0.041534335
-0.024555095
-0.0084136456
-0.00079183997
0.00061598892
-0.024949313
-0.027851222
-0.051429521
-0.093640078
-0.14767576
-0.19862209
-0.22539169
-0.21773423
-0.18871656
-0.16108448
-0.13923512
-0.12517966
-0.11753279
-0.11402236
-0.11260602
-0.1115199
-0.10956657
-0.10622457
-0.1013451
-0.095094533
-0.087800826
-0.079847929
-0.071606429
-0.063396812
-0.055477938
-0.048057512
-0.041290292
-0.035224165
-0.029782647
-0.024679309
-0.020340326
-0.016618961
-0.013507503
-0.01089078
-0.0087323639
-0.0069427868
-0.0055216517
-0.0044089688
-0.0035576319
-0.036882062
-0.058268676
-0.086333448
-0.097449558
-0.082638654
-0.052052029
-0.01909403
0.0065632898
0.022698762
0.032148491
0.036155946
0.036316225
0.030933863
0.020249148
-0.0010085053
-0.0268467
-0.036775424
-0.036345684
-0.021070848
-0.0078370423
-0.0010794894
0.00048859508
-0.035326853
-0.054873492
-0.092152833
-0.14390042
-0.19760785
-0.23081209
-0.22974898
-0.20286569
-0.16858935
-0.14321562
-0.1276497
-0.11906071
-0.11544518
-0.11477614
-0.11487664
-0.11423629
-0.112074
-0.10811373
-0.10248595
-0.095518349
-0.087614544
-0.079185172
-0.070598978
-0.062168639
-0.054158291
-0.04677418
-0.040097796
-0.034055248
-0.02831099
-0.023404629
-0.019181337
-0.015627839
-0.012637138
-0.010122407
-0.0080448754
-0.0063160447
-0.0049427889
-0.0038560262
-0.0030252427
-0.041638471
-0.048096677
-0.073523695
-0.10300066
-0.10965328
-0.088245975
-0.053721943
-0.017657041
0.0066368187
0.02283307
0.032508222
0.037715556
0.037055143
0.031240756
0.019732711
-0.0014427191
-0.024540108
-0.032857794
-0.03057762
-0.017947835
-0.0071056397
-0.0011105871
0.00021660533
-0.056816162
-0.089634217
-0.13828626
-0.19271335
-0.23145598
-0.23719635
-0.21368866
-0.17986642
-0.14748548
-0.1284482
-0.11955762
-0.11580968
-0.11588676
-0.117348
-0.11823885
-0.11745628
-0.11461812
-0.1098169
-0.10335656
-0.095652752
-0.087151974
-0.07826987
-0.069373667
-0.060788726
-0.052780889
-0.045470876
-0.038792404
-0.032349599
-0.02682819
-0.022052927
-0.018031697
-0.014624348
-0.011759249
-0.0093450491
-0.0073489035
-0.0056809621
-0.0043562979
-0.0032955592
-0.002486345
-0.056238034
-0.045971953
-0.057439989
-0.087193982
-0.11702025
-0.11908484
-0.092266528
-0.054853851
-0.017059894
0.0057271529
0.0220003
0.0331368
0.037871184
0.037188696
0.0310239
0.018684933
-0.0017876453
-0.021359909
-0.027909506
-0.025241936
-0.015137007
-0.0063198768
-0.0010964025
2.7030831e-05
-0.08534911
-0.13011665
-0.18334748
-0.2263072
-0.23914283
-0.22095621
-0.18879702
-0.15560106
-0.12984967
-0.11831313
-0.11488282
-0.11584788
-0.11882493
-0.12151167
-0.12229047
-0.12077578
-0.1170081
-0.11124999
-0.10391101
-0.095472033
-0.086392321
-0.077091999
-0.067961079
-0.059332682
-0.051372375
-0.044023418
-0.036822539
-0.030628177
-0.025252992
-0.020718686
-0.016871352
-0.013615653
-0.010873902
-0.0085603449
-0.0066457093
-0.0050385715
-0.0037622822
-0.0027287846
-0.001941553
-0.077938779
-0.05275712
-0.047811633
-0.06499221
-0.098551784
-0.1275442
-0.12548099
-0.094864742
-0.055064726
-0.017550577
0.0043572945
0.022139473
0.032813814
0.037515243
0.036592013
0.030150213
0.017517706
-0.0016649177
-0.017568413
-0.022671515
-0.020499205
-0.012694807
-0.0056287188
-0.0011802783
-0.00010719212
-0.11865735
-0.16925892
-0.21465073
-0.23458652
-0.22364483
-0.19502564
-0.16264046
-0.134541
-0.11771544
-0.11252954
-0.11444205
-0.1191377
-0.12381582
-0.12643709
-0.1265065
-0.12399165
-0.11913438
-0.11233654
-0.10410665
-0.094943879
-0.085317714
-0.07568453
-0.066450501
-0.057831382
-0.049781619
-0.041757839
-0.034829277
-0.028796263
-0.023705372
-0.01937576
-0.015708907
-0.012601441
-0.0099828817
-0.0077696685
-0.0059359278
-0.0043886365
-0.0031625085
-0.0021565234
-0.0013915818
-0.10343421
-0.06684275
-0.046799838
-0.047191562
-0.070625127
-0.10688473
-0.13397897
-0.12877845
-0.096134605
-0.054115986
-0.018714499
0.0045912573
0.021832351
0.03217077
0.036593303
0.035289382
0.028669004
0.016226117
-0.00073647924
-0.013517122
-0.018185565
-0.016443828
-0.010577973
-0.0049982222
-0.0012574228
-0.00024455795
-0.15053001
-0.19657135
-0.22296874
-0.22074689
-0.19800534
-0.16792968
-0.13968168
-0.11931643
-0.11068608
-0.11194077
-0.11833656
-0.12507172
-0.1298051
-0.13170844
-0.13071608
-0.1269523
-0.12087667
-0.11301526
-0.10389813
-0.09403992
-0.083963484
-0.074152506
-0.064877187
-0.056101832
-0.047187542
-0.039457434
-0.032704399
-0.027004263
-0.022151572
-0.018034584
-0.014543493
-0.011583614
-0.0090875887
-0.0069734374
-0.0052184962
-0.0037336161
-0.0025579589
-0.0015798908
-0.00083707063
-0.12765022
-0.084373338
-0.053076155
-0.038322204
-0.045244871
-0.073793276
-0.11164414
-0.13627695
-0.12912411
-0.095524574
-0.052635585
-0.018089134
0.0050897138
0.021361346
0.031049744
0.034947758
0.03347034
0.026717759
0.014704259
0.00042281774
-0.0099770502
-0.014371543
-0.013102233
-0.0087679233
-0.0043631522
-0.0012719616
-0.00035698977
-0.1728579
-0.20446682
-0.21159557
-0.19690489
-0.17121347
-0.14429124
-0.12249638
-0.11016072
-0.10909223
-0.11646039
-0.12535646
-0.1324662
-0.13635923
-0.13712184
-0.13467397
-0.12948595
-0.12215735
-0.11322602
-0.10324306
-0.092797471
-0.082453365
-0.072537353
-0.063020278
-0.053145619
-0.044542478
-0.03700055
-0.030634335
-0.025208901
-0.020604273
-0.01669353
-0.013377054
-0.010563535
-0.0081881497
-0.0061695537
-0.0044972259
-0.0030746458
-0.0019499964
-0.0009997538
-0.00027868097
-0.1448856
-0.10138139
-0.063043593
-0.037332861
-0.028815201
-0.042432581
-0.074570024
-0.1127813
-0.13482287
-0.12644743
-0.092806194
-0.049195544
-0.016228949
0.005505298
0.020521667
0.029437691
0.032968885
0.031228034
0.024430409
0.013437729
0.0015502929
-0.0073852266
-0.011254918
-0.010384808
-0.0072040527
-0.0037755383
-0.0012400592
-0.00043653783
-0.18016802
-0.19624568
-0.19116721
-0.17204587
-0.1480863
-0.12646823
-0.11187803
-0.10604313
-0.11325407
-0.12484365
-0.13424871
-0.14060104
-0.14317348
-0.14225119
-0.13814506
-0.1314994
-0.12289736
-0.11290778
-0.10218077
-0.091362934
-0.080836872
-0.070572892
-0.059667925
-0.050116601
-0.041711593
-0.034616246
-0.028563981
-0.023425715
-0.01906081
-0.015354533
-0.012210816
-0.0095409891
-0.0072812355