/*--------------------------------*- C++ -*----------------------------------*\
  =========                 |
  \\      /  F ield         | OpenFOAM: The Open Source CFD Toolbox
   \\    /   O peration     | Website:  https://openfoam.org
    \\  /    A nd           | Version:  8
     \\/     M anipulation  |
\*---------------------------------------------------------------------------*/
FoamFile
{
    version     2.0;
    format      ascii;
    class       surfaceScalarField;
    location    "100.9663773";
    object      phi;
}
// * * * * * * * * * * * * * * * * * * * * * * * * * * * * * * * * * * * * * //

dimensions      [0 3 -1 0 0 0 0];

internalField   nonuniform List<scalar> 
18180
(
0.0024116184
-1.3844865
0.0046535391
-1.2953388
0.0018420561
-1.3863286
0.0066552477
-1.2125208
0.0034869081
-1.2969837
0.0016225386
-1.3879511
0.0084256736
-1.1354895
0.0048699357
-1.2139039
0.0030433373
-1.2984045
0.0013848262
-1.3893359
0.0099345898
-1.0637483
0.0059641643
-1.1365837
0.0042254393
-1.215086
0.0026029342
-1.2996226
0.0012573763
-1.3905933
0.011158982
-0.99685987
0.0067290839
-1.0645132
0.0051083608
-1.1374667
0.0036178913
-1.2161009
0.0023759638
-1.3007412
0.0011624646
-1.3917558
0.012064334
-0.93444257
0.0071043073
-0.9972351
0.0056480444
-1.0650529
0.004387731
-1.1382365
0.0033253591
-1.2170503
0.0022132247
-1.3017919
0.001096648
-1.3928524
0.012623223
-0.87616129
0.0070204036
-0.93435867
0.0058108887
-0.99739794
0.0048654492
-1.0655306
0.0040740378
-1.1389852
0.0031313524
-1.2179685
0.0021040407
-1.3027993
0.0010442281
-1.3938966
0.012814503
-0.82172931
0.0063878037
-0.87552869
0.0055242855
-0.93407207
0.0049950035
-0.9975275
0.0045854833
-1.0660421
0.0038961302
-1.13975
0.0030098215
-1.2188742
0.0020178723
-1.3037729
0.00099782784
-1.3948945
0.012623772
-0.77089657
0.005112071
-0.82045357
0.00468791
-0.87469232
0.0047093707
-0.93378643
0.0048135839
-0.9977556
0.0044809509
-1.0666269
0.0038073405
-1.1405475
0.0029174698
-1.2197738
0.0019400731
-1.3047152
0.00095209977
-1.3958466
0.012029084
-0.72343346
0.0031101235
-0.76889462
0.0032281625
-0.81899383
0.0039567835
-0.87393973
0.0047258893
-0.93369874
0.0048624055
-0.99813705
0.0044949059
-1.0673145
0.0037536666
-1.1413837
0.0028306073
-1.2206644
0.001860129
-1.3056232
0.00090438059
-1.396751
0.011005926
-0.67911374
0.00030794194
-0.72063128
0.0010718353
-0.76673829
0.0026917211
-0.81772877
0.0043350509
-0.87354889
0.0050695676
-0.9339059
0.0050945294
-0.99873668
0.0045451792
-1.068106
0.0036896088
-1.1422427
0.0027322326
-1.2215365
0.0017734662
-1.3064923
0.00085365825
-1.3976046
0.0095324936
-0.63772639
-0.0033807192
-0.67542508
-0.0018777124
-0.71768173
0.00085339651
-0.76489997
0.0036223948
-0.81701611
0.0051477962
-0.87362712
0.0056366787
-0.93444805
0.0053305103
-0.99952201
0.0045456688
-1.068962
0.0035921926
-1.1431026
0.0026154673
-1.2223785
0.0016780038
-1.3073167
0.0008003517
-1.398405
0.0075924105
-0.59907671
-0.0080439423
-0.63306317
-0.0057296196
-0.67157317
-0.0016368134
-0.71519152
0.0025595804
-0.76383715
0.0051097523
-0.81697807
0.0061609093
-0.87415135
0.0061561402
-0.93527368
0.0054443544
-1.0004207
0.0044687646
-1.0698386
0.0034531747
-1.1439403
0.0024804313
-1.2231809
0.0015749487
-1.3080913
0.00074458939
-1.3991496
0.0051789643
-0.56299132
-0.013757586
-0.59336306
-0.010586603
-0.62820618
-0.0048570396
-0.66835295
0.0011141522
-0.71374609
0.0049699003
-0.7636973
0.0067342906
-0.81755145
0.0070763562
-0.87507157
0.006437842
-0.93626717
0.0054007314
-1.0013527
0.0043088902
-1.0706943
0.0032794559
-1.1447394
0.0023312106
-1.2239372
0.0014663181
-1.308813
0.00068610031
-1.3998357
0.0022707845
-0.52932115
-0.020588272
-0.55616064
-0.016546304
-0.58740336
-0.0088745864
-0.62418864
-0.00073170377
-0.66650709
0.0047437917
-0.71351998
0.0074194586
-0.76438247
0.0081578268
-0.81863292
0.0075781995
-0.87621193
0.0064277699
-0.93729421
0.0052090163
-1.0022528
0.0040880069
-1.0715029
0.0030832765
-1.1454914
0.002173264
-1.2246441
0.0013534992
-1.3094804
0.00062515428
-1.4004608
-0.0011373246
-0.4978797
-0.028601942
-0.52130749
-0.023705992
-0.54900095
-0.013754355
-0.58252359
-0.0029922646
-0.62192808
0.0044593642
-0.66622266
0.0082799574
-0.71438048
0.0094701912
-0.76569483
0.0089235215
-0.81997824
0.0075926156
-0.87737677
0.0061776815
-0.93826287
0.0049196984
-1.0030845
0.0038345851
-1.0722542
0.002876642
-1.1461948
0.0020110909
-1.2253017
0.0012374881
-1.3100927
0.00056215851
-1.401023
-0.0049689938
-0.46834339
-0.037819972
-0.48866167
-0.032178305
-0.51283517
-0.019558348
-0.54319695
-0.0056794087
-0.57983645
0.0041506456
-0.62161936
0.0093773605
-0.66732007
0.011093071
-0.71600336
0.010538336
-0.76730965
0.0089450198
-0.82133064
0.0072439395
-0.87844303
0.0057831101
-0.93912628
0.0045870538
-1.0038369
0.0035723998
-1.0729499
0.0026683739
-1.1468521
0.0018467682
-1.225911
0.0011188165
-1.3106494
0.00049723958
-1.4015202
-0.0091973894
-0.44042619
-0.048154923
-0.45800844
-0.042086309
-0.47875367
-0.026346534
-0.50604699
-0.0088025004
-0.54007386
0.0038516727
-0.57953748
0.010768657
-0.62301066
0.013112963
-0.66933996
0.012510251
-0.71797528
0.010549491
-0.76891412
0.0084417567
-0.82252846
0.0066879495
-0.87934787
0.0053339964
-0.93987323
0.0042532013
-1.0045177
0.0033171956
-1.0735988
0.0024622851
-1.1474676
0.0016803374
-1.2264725
0.00099740026
-1.3111495
0.00043058107
-1.4019508
-0.013662213
-0.4128183
-0.059573634
-0.42900748
-0.053432098
-0.44666265
-0.034193745
-0.47090646
-0.012359707
-0.50248978
0.0035979819
-0.53982017
0.012509416
-0.58127824
0.015616666
-0.62551436
0.014940357
-0.67177006
0.012487269
-0.71991306
0.0098164192
-0.77028878
0.0076446123
-0.82348513
0.0060652887
-0.88007916
0.0048999056
-0.94051993
0.0039448435
-1.0051454
0.0030752676
-1.0742117
0.0022576448
-1.1480449
0.0015106312
-1.2269857
0.00087276949
-1.3115917
0.00036258549
-1.4023134
-0.019756547
-0.38273193
-0.071816986
-0.40057495
-0.06620647
-0.41623311
-0.043106478
-0.43774992
-0.016345497
-0.46692067
0.0034286171
-0.50232042
0.014652807
-0.54196356
0.018690559
-0.58435213
0.017933272
-0.62850727
0.014849209
-0.67413201
0.011421515
-0.72151815
0.0086658873
-0.77131006
0.0067657434
-0.82418558
0.0054865815
-0.88066584
0.0045250108
-0.9411001
0.0036716489
-1.0057418
0.0028437709
-1.0747979
0.0020511758
-1.1485855
0.0013364678
-1.2274494
0.000744824
-1.311974
0.00029349058
-1.4026069
-0.027910737
-0.34945497
-0.084442588
-0.37010632
-0.080172897
-0.38660852
-0.052888289
-0.4064513
-0.020803594
-0.43329182
0.0034032432
-0.46689529
0.017257621
-0.50492523
0.022417069
-0.54569007
0.021592782
-0.58801164
0.017733402
-0.63139147
0.013319166
-0.67602966
0.0097672323
-0.7226195
0.0074165044
-0.77196082
0.0059788654
-0.82467786
0.0050228539
-0.88116368
0.0042239817
-0.94165243
0.003426938
-1.0063249
0.0026147878
-1.0753615
0.0018395297
-1.1490885
0.0011573049
-1.2278619
0.0006141628
-1.3122946
0.00022360914
-1.4028305
-0.037511852
-0.31528973
-0.096596432
-0.33730113
-0.093422061
-0.35685716
-0.062793134
-0.37670368
-0.025653589
-0.40160131
0.0035251521
-0.43341373
0.020392162
-0.47002984
0.026868898
-0.50937706
0.026018779
-0.55011607
0.021243057
-0.59152129
0.015581098
-0.6336534
0.010968477
-0.6772309
0.0079947556
-0.72319775
0.0063354032
-0.77231736
0.0053930455
-0.82504806
0.0046958919
-0.88163559
0.0039825571
-0.94220805
0.0031943593
-1.0069045
0.0023812161
-1.0759032
0.0016205628
-1.1495518
0.00097308194
-1.2282208
0.00048162971
-1.3125527
0.00015354228
-1.402984
-0.047989508
-0.28224772
-0.1079735
-0.30391267
-0.10433661
-0.32638658
-0.071665858
-0.34798443
-0.030578975
-0.37177829
0.0037975662
-0.40187372
0.024120829
-0.4371424
0.032109793
-0.47527073
0.031302415
-0.5146607
0.025483454
-0.55435647
0.018288927
-0.59422912
0.012295667
-0.63498059
0.0084735357
-0.67770968
0.0065023645
-0.72336471
0.0055831188
-0.77250743
0.005039644
-0.82539181
0.0044770775
-0.88213011
0.0037703275
-0.94278402
0.0029598556
-1.0074832
0.002138194
-1.0764208
0.001393027
-1.1499717
0.00078406884
-1.2285233
0.0003481414
-1.3127473
8.3585565e-05
-1.4030676
-0.058823582
-0.25176028
-0.11858477
-0.27163645
-0.11272843
-0.29552084
-0.0783193
-0.31973314
-0.03494199
-0.34362142
0.0043301944
-0.37231092
0.028417674
-0.40617057
0.03820842
-0.44324103
0.03752248
-0.48149079
0.030559194
-0.51973644
0.02153329
-0.55760083
0.01378341
-0.59571687
0.0088256055
-0.63533266
0.0064103573
-0.67761768
0.0055181415
-0.72329973
0.0051943255
-0.77266211
0.0048625942
-0.82577732
0.0043147602
-0.88267454
0.0035626745
-0.94338684
0.0027140525
-1.008059
0.0018818347
-1.0769096
0.001156577
-1.1503442
0.00059128968
-1.2287664
0.00021479899
-1.3128785
1.1377296e-05
-1.403079
-0.069626982
-0.22436957
-0.12861176
-0.24173329
-0.11895742
-0.26540746
-0.082088035
-0.29175211
-0.037824066
-0.31685106
0.005286458
-0.34457768
0.033258364
-0.37715161
0.045197893
-0.41316004
0.044739821
-0.45045837
0.036571319
-0.48750292
0.02541296
-0.52361611
0.015474544
-0.55929197
0.0090257189
-0.59591698
0.0059886733
-0.63491097
0.0051036727
-0.67720321
0.0050771666
-0.72318258
0.0050713191
-0.77287084
0.004785073
-0.82624764
0.0041707932
-0.88328266
0.0033431293
-0.94401592
0.0024489395
-1.0086261
0.0016098836
-1.0773629
0.00091199343
-1.1506649
0.00039699965
-1.2289486
8.396888e-05
-1.3129511
-4.8525928e-05
-1.4030304
-0.080130465
-0.2001185
-0.13822096
-0.21476037
-0.12357875
-0.23711197
-0.083049941
-0.26444555
-0.03842365
-0.29115252
0.0069336014
-0.31849821
0.0387174
-0.35003672
0.052991008
-0.38494473
0.053011603
-0.42143182
0.043611825
-0.45749887
0.030033451
-0.49212341
0.017420314
-0.52556188
0.0090468159
-0.55931306
0.0051610269
-0.59508933
0.0042441989
-0.6340515
0.0045967448
-0.67672278
0.0050446427
-0.7231559
0.0051272008
-0.77321297
0.0047556731
-0.82683252
0.0040171415
-0.88395668
0.0030970287
-0.944664
0.0021586863
-1.0091749
0.0013224712
-1.0777734
0.00066138131
-1.1509293
0.0002034007
-1.2290681
-4.3822168e-05
-1.3129558
-0.0001097141
-1.4029207
-0.090152788
-0.17881759
-0.14745157
-0.19088789
-0.12702648
-0.21131264
-0.081672996
-0.23848891
-0.036371184
-0.26649802
0.0097571984
-0.29397612
0.044786123
-0.32456693
0.061533124
-0.35857884
0.06233289
-0.39426601
0.051753416
-0.42957341
0.035508949
-0.46297437
0.019681333
-0.49438443
0.0088587045
-0.52537377
0.0038384848
-0.55799052
0.0028320434
-0.59367718
0.0036530136
-0.63310777
0.004718397
-0.67639654
0.0052898301
-0.72331853
0.0052845858
-0.77374188
0.0047232827
-0.82753866
0.0038284844
-0.88468813
0.0028125305
-0.94531785
0.0018414769
-1.0096939
0.0010216597
-1.0781337
0.00040719231
-1.1511331
8.7718568e-06
-1.2291206
-0.00017263656
-1.3128928
-0.00016936654
-1.4027514
-0.099550495
-0.16021831
-0.15623325
-0.17003592
-0.12960747
-0.1883069
-0.078567447
-0.21441819
-0.031751986
-0.24310811
0.01418859
-0.27092941
0.051467213
-0.30065721
0.070804939
-0.33383874
0.072553249
-0.3687992
0.061085747
-0.40359835
0.041961262
-0.43602573
0.022328378
-0.46562142
0.0084290393
-0.49395476
0.0019216157
-0.5234569
0.00074326223
-0.55590174
0.0021296997
-0.59215386
0.0039903489
-0.63237972
0.0052380457
-0.67634476
0.0057199928
-0.72375394
0.0054511536
-0.77446975
0.0046451425
-0.82835532
0.0035828426
-0.88545844
0.0024841119
-0.94596048
0.0014992404
-1.0101715
0.00071069047
-1.0784372
0.00015238718
-1.1512767
-0.00017665337
-1.2291166
-0.00029407006
-1.3127681
-0.00022654856
-1.4025248
-0.10822735
-0.14402754
-0.16445615
-0.15199541
-0.1315332
-0.16811019
-0.074348867
-0.19252548
-0.024958122
-0.22121206
0.020387816
-0.24930733
0.058830524
-0.27829272
0.080712577
-0.31056485
0.083591907
-0.3448774
0.071508602
-0.37922205
0.049494454
-0.41113154
0.02546417
-0.43916152
0.007727975
-0.46492035
-0.00069361884
-0.49133953
-0.0021548003
-0.52055883
-9.8873101e-05
-0.55367317
0.0027576804
-0.5909212
0.0049191696
-0.63206085
0.0060318772
-0.67665664
0.0061908693
-0.72449365
0.00555417
-0.77537878
0.004483005
-0.82925548
0.0032684191
-0.88624275
0.0021127937
-0.94657404
0.0011360845
-1.0105969
0.00039378743
-1.0786786
-9.9724142e-05
-1.1513537
-0.00035922505
-1.2290515
-0.00040979462
-1.3125849
-0.00028079669
-1.402244
-0.11802973
-0.15314213
-0.17198948
-0.13649421
-0.13297304
-0.15055557
-0.069550124
-0.17290893
-0.016532944
-0.20095066
0.028264172
-0.22908841
0.066946772
-0.25742358
0.091160891
-0.28874103
0.095431092
-0.32240404
0.082931991
-0.35630079
0.058121577
-0.38784917
0.029173579
-0.41484095
0.0067339524
-0.4381675
-0.0041159503
-0.46149802
-0.0060010187
-0.48749331
-0.0031576342
-0.51750007
0.00092248902
-0.55183798
0.004255654
-0.59025768
0.0062045984
-0.63223357
0.0069270789
-0.67739285
0.0065649541
-0.72550444
0.0055320531
-0.77642783
0.0042153223
-0.83020238
0.0028843869
-0.88701434
0.0017038518
-0.9471418
0.00075766564
-1.0109608
7.5892928e-05
-1.0788542
-0.00034687157
-1.151366
-0.00053440831
-1.2289269
-0.00051898259
-1.3123467
-0.00033165287
-1.4019124
-0.12676226
-0.14785236
-0.17983659
-0.14529501
-0.13409409
-0.13537316
-0.064597001
-0.15550869
-0.0070533853
-0.18238849
0.037574494
-0.21026098
0.07582417
-0.23796581
0.10205762
-0.26832031
0.10805492
-0.30136486
0.095429859
-0.3349019
0.067916614
-0.36609583
0.033525505
-0.3922011
0.005421116
-0.41352811
-0.0085011884
-0.43378226
-0.010939201
-0.45655984
-0.0071703091
-0.48348064
-0.0016080454
-0.51496954
0.0031789303
-0.55076125
0.006217431
-0.59027051
0.0076532472
-0.63295974
0.0076862393
-0.67851413
0.0067520433
-0.72672443
0.0053509203
-0.77756342
0.0038392271
-0.83115722
0.0024376872
-0.88774818
0.0012650377
-0.94764918
0.00037118072
-1.0112561
-0.00023861039
-1.0789625
-0.00058495476
-1.1513155
-0.00070008802
-1.2287458
-0.00062063146
-1.3120577
-0.00037844329
-1.4015339
-0.13419636
-0.14329803
-0.18664175
-0.1410472
-0.13653035
-0.14285875
-0.05980555
-0.14016461
0.0029687672
-0.16553084
0.048012054
-0.19282605
0.085418376
-0.21985519
0.11329058
-0.24919877
0.121275
-0.28154039
0.10892511
-0.31486011
0.078974841
-0.34596013
0.038720437
-0.37129076
0.003851794
-0.39063178
-0.013942507
-0.40808679
-0.017104208
-0.42761725
-0.012258786
-0.45147136
-0.004924355
-0.48016433
0.0016288193
-0.51341943
0.0060427377
-0.55058656
0.0083748207
-0.59099209
0.0089287438
-0.63420224
0.0081647789
-0.67992687
0.0067043178
-0.72807782
0.0050067149
-0.77873091
0.0033642257
-0.83208376
0.0019396529
-0.88842279
0.00080663982
-0.94808463
-1.5575834e-05
-1.0114791
-0.00054510956
-1.0790023
-0.00081164652
-1.1512039
-0.00085501532
-1.2285114
-0.000713888
-1.3117223
-0.00042068837
-1.4011132
-0.14019647
-0.13960651
-0.19228666
-0.13765312
-0.13870943
-0.13886812
-0.057153511
-0.14551079
0.013102318
-0.15029817
0.059241004
-0.17675979
0.095649812
-0.20305749
0.12470452
-0.23126913
0.13467786
-0.26260164
0.1227683
-0.29538358
0.090526955
-0.32641223
0.044813503
-0.3520532
0.0021098173
-0.36954878
-0.020423885
-0.3841504
-0.024651154
-0.40053985
-0.018543194
-0.42133284
-0.0091070029
-0.44728872
-0.00044424328
-0.47809126
0.0056540678
-0.51303076
0.0091006407
-0.55131238
0.010311381
-0.59237472
0.0097960985
-0.63583356
0.0083062126
-0.68152877
0.006419425
-0.72949053
0.0045135154
-0.7798802
0.0028072096
-0.83295132
0.0014045821
-0.88902074
0.0003392957
-0.94843951
-0.00039865449
-1.0116256
-0.00083953896
-1.0789744
-0.0010249459
-1.151034
-0.00099803594
-1.2282272
-0.00079855694
-1.3113444
-0.00045814699
-1.4006551
-0.14470289
-0.13688087
-0.19666624
-0.13522693
-0.14073877
-0.13562377
-0.054632545
-0.14138909
0.021237546
-0.15364602
0.07090997
-0.16196713
0.10631041
-0.18742039
0.13595556
-0.21430852
0.14749159
-0.24408286
0.13582918
-0.27566252
0.10127029
-0.30612692
0.051043301
-0.33264202
-1.0837845e-05
-0.34993254
-0.028018552
-0.36195412
-0.033620462
-0.37518109
-0.026148486
-0.39293455
-0.014228952
-0.4162109
-0.003085008
-0.44464795
0.0050310755
-0.47746827
0.0098396859
-0.5137698
0.011859696
-0.5528607
0.011681692
-0.59426032
0.010192728
-0.63772007
0.0081129007
-0.68322224
0.0059182345
-0.73089525
0.0038959404
-0.78096893
0.00218884
-0.83373558
0.00084809363
-0.88952953
-0.0001277561
-0.9487104
-0.00076933234
-1.0116958
-0.0011185505
-1.0788808
-0.0012231396
-1.1508089
-0.0011285738
-1.2278972
-0.00087439305
-1.3109282
-0.00049100576
-1.4001641
-0.14778099
-0.1351838
-0.19971695
-0.13383016
-0.14265677
-0.13330893
-0.052576985
-0.13767933
0.029858694
-0.15001024
0.080724435
-0.16346049
0.11714023
-0.17279695
0.14664119
-0.19810603
0.15884488
-0.22566181
0.14682735
-0.25508102
0.10999024
-0.28438247
0.05554349
-0.31062711
-0.0029666494
-0.32968621
-0.037090278
-0.34086082
-0.044130454
-0.35144412
-0.035128949
-0.36620063
-0.02036041
-0.3868031
-0.0063227792
-0.41297312
0.0041649284
-0.4437818
0.010605072
-0.47823366
0.013603282
-0.51551339
0.01386189
-0.55504089
0.012406391
-0.59647398
0.010126607
-0.63973378
0.0076135685
-0.68491758
0.0052361575
-0.73223547
0.0031840598
-0.78196415
0.0015313486
-0.83441883
0.00028437352
-0.88994166
-0.00058583306
-0.9488939
-0.0011234327
-1.0116909
-0.0013795358
-1.0787244
-0.0014050925
-1.1505324
-0.0012462084
-1.2275254
-0.00094152615
-1.3104776
-0.00051946158
-1.3996446
-0.14954725
-0.13451894
-0.20146923
-0.13343152
-0.14442482
-0.13206211
-0.051281438
-0.13460448
0.038447816
-0.14626846
0.091922839
-0.16120864
0.12532786
-0.17164812
0.1564401
-0.18259586
0.16821326
-0.2074744
0.15509579
-0.23393025
0.11535981
-0.26045059
0.055608827
-0.2844478
-0.0086605088
-0.30493325
-0.048157728
-0.31861876
-0.056233918
-0.32875735
-0.045542788
-0.34103028
-0.027552094
-0.35900895
-0.010176018
-0.38294986
0.0030563223
-0.41186452
0.011413024
-0.44458976
0.015573723
-0.4802041
0.016379555
-0.51803105
0.014996864
-0.55763137
0.012506927
-0.5988543
0.0096384945
-0.64175871
0.0068589254
-0.68654034
0.0044162257
-0.73346764
0.0024095615
-0.78284237
0.00085538407
-0.83498984
-0.00027411129
-0.89025338
-0.0010268552
-0.94899048
-0.0014570504
-1.0116134
-0.0016206368
-1.0785089
-0.001570095
-1.1502085
-0.0013509127
-1.227116
-0.0010000973
-1.309997
-0.00054372683
-1.3991009
-0.15002165
-0.13499206
-0.20201363
-0.13397453
-0.14594512
-0.13191122
-0.050999136
-0.13234441
0.046477633
-0.1426343
0.10404394
-0.15838955
0.1348966
-0.17077738
0.16242041
-0.17762843
0.17548832
-0.18987092
0.16063326
-0.21301188
0.11718991
-0.23576036
0.05088578
-0.25572755
-0.019264876
-0.27384343
-0.061311214
-0.29177976
-0.069595776
-0.3052569
-0.057164028
-0.31713611
-0.035785946
-0.33279643
-0.014686384
-0.35449858
0.0017202279
-0.38161376
0.012286439
-0.41273793
0.017804242
-0.44682028
0.019278627
-0.48310317
0.018016405
-0.5210506
0.015303899
-0.56042834
0.012035429
-0.60125123
0.0087978422
-0.64369762
0.0059102383
-0.68803436
0.0035031775
-0.73456125
0.0016022311
-0.78358921
0.000179526
-0.83544348
-0.00081649253
-0.89046375
-0.0014451096
-0.94900242
-0.00176711
-1.0114669
-0.0018405348
-1.0782384
-0.0017178274
-1.1498416
-0.0014428132
-1.2266733
-0.0010504144
-1.3094903
-0.00056402911
-1.3985369
-0.14903336
-0.1366024
-0.20143026
-0.13557543
-0.14723098
-0.13268867
-0.051857818
-0.13105254
0.053413838
-0.13928062
0.11656784
-0.1551582
0.14555026
-0.16904321
0.16873346
-0.17709044
0.17881002
-0.18095012
0.163736
-0.19297366
0.11586938
-0.21169135
0.042099712
-0.22697429
-0.034010559
-0.24098186
-0.075614414
-0.25954023
-0.082693335
-0.2786822
-0.068880669
-0.29354026
-0.044874817
-0.30804724
-0.019813858
-0.32766896
0.000157669
-0.35293602
0.013259806
-0.38258713
0.020330413
-0.4152641
0.022602719
-0.45014437
0.021518011
-0.48660478
0.018571511
-0.52431821
0.014850856
-0.56324377
0.011088318
-0.60354171
0.0076912927
-0.64547868
0.0048299526
-0.68936113
0.0025388648
-0.73549789
0.00078688179
-0.78419657
-0.00048143956
-0.83577853
-0.0013341602
-0.8905747
-0.0018361597
-0.94893337
-0.0020515707
-1.0112559
-0.0020386151
-1.0779176
-0.001848349
-1.149436
-0.001522266
-1.2262014
-0.0010928329
-1.3089615
-0.00058060962
-1.3979563
-0.13921094
-0.1466329
-0.19974443
-0.13828823
-0.14837517
-0.13443124
-0.053775668
-0.13077082
0.058764739
-0.13640344
0.12896396
-0.15167673
0.15690734
-0.16651528
0.17520204
-0.17551179
0.18145438
-0.1797348
0.1648563
-0.18207041
0.11203387
-0.18913816
0.030450051
-0.20004168
-0.051154472
-0.20983038
-0.090748599
-0.22584768
-0.09415812
-0.24807545
-0.078934459
-0.26862841
-0.054051102
-0.28436398
-0.025468235
-0.30239287
-0.0016280252
-0.32588326
0.014360112
-0.35403633
0.023187397
-0.38544411
0.026391951
-0.41905333
0.025553022
-0.45417938
0.022364783
-0.49039805
0.018133708
-0.52760106
0.013767061
-0.56592251
0.0097847579
-0.60563517
0.0064065082
-0.64705523
0.0036769352
-0.6904992
0.0015591141
-0.73627012
-1.0473044e-05
-0.78466753
-0.0011154824
-0.83599721
-0.001820255
-0.8905906
-0.0021967294
-0.94878821
-0.0023092388
-1.0109852
-0.0022146695
-1.0775513
-0.0019619669
-1.1489963
-0.0015897422
-1.2257045
-0.0011277851
-1.3084143
-0.00059371662
-1.3973625
-0.14189567
-0.1970597
-0.14273894
-0.1429067
-0.14950312
-0.13716028
-0.05662242
-0.13158449
0.06225144
-0.13425752
0.14069222
-0.1481317
0.1685363
-0.1633057
0.18166045
-0.17297369
0.18348006
-0.17753747
0.16482224
-0.17970074
0.10974636
-0.1797829
0.01720614
-0.17589425
-0.069059077
-0.18213708
-0.10609148
-0.19448749
-0.10437969
-0.21562611
-0.086054033
-0.24095588
-0.061687039
-0.26099248
-0.031390919
-0.27844129
-0.00355066
-0.30047023
0.015557896
-0.32708105
0.026421258
-0.35727019
0.030682932
-0.38973509
0.030167656
-0.42366797
0.026737481
-0.45855208
0.021934007
-0.49419835
0.016872541
-0.53070654
0.012215048
-0.5683528
0.0082462905
-0.60747496
0.0050233989
-0.6484017
0.0024998188
-0.69143991
0.00059338554
-0.73687398
-0.00078461774
-0.7849984
-0.0017134355
-0.83610403
-0.0022705056
-0.89051683
-0.0025249579
-0.9485725
-0.00253958
-1.0106603
-0.0023689703
-1.0771443
-0.0020592456
-1.1485268
-0.0016458405
-1.2251865
-0.0011557336
-1.3078523
-0.00060360723
-1.3967589
-0.14072855
-0.15067023
-0.14633945
-0.19345919
-0.14695324
-0.13810024
-0.060393394
-0.1333893
0.063698043
-0.13303109
0.15117698
-0.14474228
0.17997095
-0.15956635
0.18796097
-0.16960622
0.18497854
-0.17447217
0.16358274
-0.17629797
0.10598059
-0.17593497
0.0095484683
-0.17212523
-0.086655289
-0.15829803
-0.12107127
-0.16715729
-0.11403259
-0.18483459
-0.090530193
-0.21114995
-0.066123617
-0.2365193
-0.036703854
-0.25567954
-0.0055080886
-0.27648386
0.016896251
-0.30180859
0.030017419
-0.33067721
0.035515241
-0.3621025
0.0354038
-0.39497124
0.031739596
-0.42867008
0.026301209
-0.46291928
0.020443032
-0.49776884
0.015005362
-0.53349685
0.010359297
-0.57046581
0.0065815372
-0.60903309
0.0036095442
-0.64951142
0.001337917
-0.69218444
-0.00033730413
-0.73732129
-0.0015127778
-0.78519906
-0.0022687191
-0.83610581
-0.0026819635
-0.89035982
-0.0028198793
-0.9482922
-0.0027427198
-1.0102866
-0.0025020799
-1.0767015
-0.0021409017
-1.1480318
-0.0016912244
-1.224651
-0.0011771729
-1.3072788
-0.00061053736
-1.3961484
-0.13601906
-0.065102884
-0.14512283
-0.15188685
-0.15123419
-0.18917824
-0.15175661
-0.13243704
0.063011244
-0.1327025
0.15989096
-0.14174508
0.19073149
-0.15550282
0.19395947
-0.16556485
0.18599071
-0.17061838
0.16107637
-0.1719658
0.10065079
-0.17096817
0.00065803797
-0.16704454
-0.098015225
-0.16076529
-0.13540681
-0.14396249
-0.12341556
-0.15777432
-0.093642376
-0.18172241
-0.066886845
-0.21038672
-0.03974483
-0.23347832
-0.007364009
-0.25382362
0.01847993
-0.27806754
0.033943342
-0.30573451
0.040900564
-0.33606253
0.041292202
-0.3679909
0.037413705
-0.40064535
0.031281153
-0.43365003
0.024515963
-0.46699221
0.018177073
-0.50094055
0.012753238
-0.5358908
0.0083486418
-0.57223291
0.0048813645
-0.61030491
0.0022158876
-0.65038939
0.00022037771
-0.69274212
-0.0012173309
-0.73761674
-0.0021898943
-0.78527788
-0.0027775185
-0.83601026
-0.0030531868
-0.89012651
-0.0030813512
-0.94795356
-0.0029191923
-1.0098695
-0.0026148482
-1.0762275
-0.0022077953
-1.1475152
-0.0017266179
-1.2241015
-0.0011926056
-1.3066967
-0.00061476304
-1.3955336
-0.13338433
0.060376515
-0.13944885
-0.070776858
-0.1499959
-0.15312514
-0.15650639
-0.18442846
-0.15699993
-0.12614291
0.16650855
-0.13932009
0.20035731
-0.15137089
0.19950826
-0.16105162
0.18649934
-0.16607348
0.15728279
-0.1668248
0.093655561
-0.16497057
-0.0094751904
-0.16083494
-0.1098089
-0.15525086
-0.14738683
-0.14878528
-0.13256444
-0.13481362
-0.096461066
-0.15495563
-0.064825625
-0.18378363
-0.039184418
-0.21094714
-0.0083639071
-0.23247842
0.020348666
-0.25569236
0.038241244
-0.28236545
0.046783192
-0.31161714
0.047857684
-0.34262802
0.043794319
-0.37437151
0.036916064
-0.40628026
0.029128281
-0.43826234
0.021750855
-0.47056599
0.015430636
-0.50361795
0.010315946
-0.5378581
0.006303152
-0.5736547
0.0032137948
-0.61130282
0.00088049736
-0.65104951
-0.00083356611
-0.69312588
-0.0020353141
-0.73777132
-0.0028111721
-0.78524423
-0.0032379139
-0.83582553
-0.0033837443
-0.88982412
-0.0033099078
-0.94756285
-0.0030699615
-1.0094143
-0.0027083037
-1.075727
-0.002260865
-1.1469809
-0.0017527669
-1.2235414
-0.0012025384
-1.3061089
-0.00061653342
-1.3949171
-0.13768603
0.17081025
-0.13485252
0.055780186
-0.14371453
-0.077058227
-0.15527228
-0.15435926
-0.16199228
-0.1794361
-0.16253012
-0.1194337
0.20842309
-0.14738588
0.20440923
-0.15627186
0.18642461
-0.16097689
0.15225244
-0.16104313
0.085007756
-0.158177
-0.020744354
-0.15370141
-0.12187997
-0.14876387
-0.15949679
-0.1431409
-0.14373562
-0.1376141
-0.099489342
-0.13178534
-0.061349849
-0.15843141
-0.034922096
-0.18804595
-0.0071985697
-0.21211247
0.022553138
-0.23468289
0.042939309
-0.26039042
0.053147485
-0.28872974
0.055069935
-0.31882939
0.050919175
-0.34975287
0.043247661
-0.38070311
0.034318011
-0.41146999
0.025748085
-0.44225957
0.018392616
-0.47352797
0.012469973
-0.50577198
0.0078536839
-0.53940863
0.0043122302
-0.57475313
0.0016266661
-0.61204899
-0.00037209534
-0.65151098
-0.0018111466
-0.69335005
-0.002785038
-0.73779745
-0.0033742566
-0.78510789
-0.0036491375
-0.83556014
-0.0036741412
-0.88945989
-0.0035065914
-0.94712622
-0.0031962237
-1.0089264
-0.0027836163
-1.0752043
-0.0023011076
-1.1464326
-0.0017704304
-1.2229735
-0.0012074696
-1.305518
-0.00061609127
-1.394301
-0.14373708
0.21447414
-0.13654239
0.17250012
-0.13738218
0.049447832
-0.14862776
-0.083702751
-0.16078333
-0.15556821
-0.16754176
-0.17442446
-0.16818833
-0.11251418
0.2084243
-0.15140094
0.18565346
-0.15550071
0.14608317
-0.15480762
0.074859136
-0.15089451
-0.032864208
-0.14605714
-0.13384355
-0.14173783
-0.17128972
-0.13697094
-0.15517028
-0.13170623
-0.10785105
-0.12925239
-0.057661263
-0.13547393
-0.027878889
-0.16547462
-0.0029942679
-0.19225025
0.025459034
-0.21501837
0.048028709
-0.23977229
0.059985675
-0.26722861
0.062879343
-0.29653915
0.058791834
-0.32670205
0.050318314
-0.35682353
0.040124018
-0.38650912
0.030190583
-0.41591248
0.021637544
-0.4455045
0.014791122
-0.47584912
0.0095055024
-0.50742379
0.0054814977
-0.5405779
0.0024347522
-0.57556122
0.00014884577
-0.61256993
-0.0015291953
-0.65179293
-0.002705466
-0.69342962
-0.0034645349
-0.73770717
-0.0038781848
-0.78487884
-0.0040118262
-0.83522245
-0.0039255779
-0.8890409
-0.0036728081
-0.94664963
-0.003299397
-1.0084106
-0.00284204
-1.0746633
-0.0023295388
-1.1458735
-0.0017803591
-1.2224006
-0.0012078867
-1.3049262
-0.00061366812
-1.3936873
-0.14664614
0.21133335
-0.1402068
0.21813855
-0.1366062
0.17172414
-0.14073194
0.04155202
-0.15401213
-0.090473946
-0.16637651
-0.15673345
-0.17302863
-0.16958417
-0.17381657
-0.10558181
0.18409746
-0.14984494
0.13890955
-0.14832709
0.063507638
-0.14345612
-0.04537559
-0.13838313
-0.14515249
-0.1347482
-0.18222384
-0.13080372
-0.16634922
-0.125792
-0.11735368
-0.1222036
-0.060335934
-0.12657772
-0.019342789
-0.14401003
0.0042943556
-0.17276324
0.029726041
-0.19651726
0.053479169
-0.22046883
0.06726686
-0.24705348
0.071269342
-0.27561861
0.067366454
-0.30511377
0.058155653
-0.33453939
0.04658698
-0.36328649
0.035101464
-0.39142
0.025161949
-0.41943689
0.017254573
-0.44796795
0.011222484
-0.4775661
0.0066849164
-0.50862721
0.0032719138
-0.54141506
0.0007044301
-0.5761168
-0.001205741
-0.61289338
-0.0025826873
-0.65191571
-0.00351408
-0.69338008
-0.0040729732
-0.73751239
-0.0043237742
-0.78456689
-0.0043273728
-0.83482066
-0.0041396782
-0.88857403
-0.0038102366
-0.9461388
-0.0033810144
-1.0078717
-0.0028848697
-1.074108
-0.002347177
-1.1453067
-0.0017832949
-1.2218252
-0.0012042579
-1.3043356
-0.00060948237
-1.3930779
-0.14424754
0.18169886
-0.14178555
0.2129121
-0.13808131
0.21961365
-0.13750727
0.16849947
-0.14480735
0.032347232
-0.15963836
-0.097212099
-0.17192865
-0.15783343
-0.17834409
-0.16505664
-0.17925686
-0.098835843
0.13090596
-0.14184135
0.051373855
-0.1361933
-0.057665221
-0.13116649
-0.15515515
-0.12838047
-0.19174212
-0.12522992
-0.17674107
-0.12041186
-0.12758561
-0.11556008
-0.064768542
-0.117771
-0.016172911
-0.1297476
0.013940644
-0.15365632
0.035885561
-0.17892276
0.059354922
-0.20239301
0.074944467
-0.22814644
0.080207232
-0.25599137
0.076632783
-0.28488494
0.066752381
-0.3137105
0.053745336
-0.34169774
0.0405077
-0.36869272
0.028961939
-0.39521999
0.019830933
-0.42201325
0.012961785
-0.44970725
0.0078765021
-0.47875769
0.0040971051
-0.5094524
0.001262523
-0.54197316
-0.00086431259
-0.57645823
-0.002430991
-0.61304508
-0.0035314315
-0.65189836
-0.0042377498
-0.6932153
-0.0046117194
-0.73722444
-0.0047129398
-0.78418132
-0.0045977465
-0.83436259
-0.0043184552
-0.88806581
-0.0039207379
-0.94559907
-0.0034426794
-1.0073139
-0.0029134122
-1.0735418
-0.0023550351
-1.1447349
-0.0017799573
-1.2212495
-0.0011970232
-1.3037481
-0.00060372054
-1.3924741
-0.13563811
0.12229652
-0.13859851
0.17851182
-0.13819554
0.21302634
-0.13691438
0.21902076
-0.13918773
0.16287985
-0.14947991
0.022188785
-0.16537046
-0.1037703
-0.17731972
-0.15885781
-0.1834022
-0.1609113
-0.18433433
-0.092521885
0.038917332
-0.12938483
-0.06900631
-0.12485222
-0.16317328
-0.12314836
-0.19931154
-0.12081105
-0.18588035
-0.11609064
-0.1380314
-0.10996607
-0.071201138
-0.10912748
-0.013694243
-0.12024966
0.019731534
-0.13553849
0.044239183
-0.16200994
0.065858377
-0.18542621
0.082936724
-0.21038527
0.089635371
-0.23757458
0.086579192
-0.26593778