/*--------------------------------*- C++ -*----------------------------------*\
  =========                 |
  \\      /  F ield         | OpenFOAM: The Open Source CFD Toolbox
   \\    /   O peration     | Website:  https://openfoam.org
    \\  /    A nd           | Version:  8
     \\/     M anipulation  |
\*---------------------------------------------------------------------------*/
FoamFile
{
    version     2.0;
    format      ascii;
    class       surfaceScalarField;
    location    "100.9663773";
    object      phi_0;
}
// * * * * * * * * * * * * * * * * * * * * * * * * * * * * * * * * * * * * * //

dimensions      [0 3 -1 0 0 0 0];

internalField   nonuniform List<scalar> 
18180
(
0.00244498
-1.3843573
0.0047210076
-1.295219
0.0018709443
-1.3862283
0.0067598459
-1.2124146
0.003545825
-1.2968939
0.0016468558
-1.3878751
0.0085723995
-1.1353981
0.0049592948
-1.2138281
0.0030918558
-1.2983389
0.0014045356
-1.3892797
0.010131539
-1.0636747
0.006085778
-1.1365246
0.0042971555
-1.2150334
0.002640566
-1.2995749
0.0012732807
-1.3905529
0.011416897
-0.99680715
0.006884552
-1.0644735
0.0052033092
-1.1374307
0.0036716672
-1.2160645
0.0024058626
-1.3007075
0.0011755902
-1.3917285
0.012395489
-0.93441347
0.0072963891
-0.99721898
0.0057663767
-1.0650366
0.0044555197
-1.1382146
0.0033668739
-1.2170255
0.0022376589
-1.3017696
0.0011077374
-1.3928363
0.013042185
-0.87615977
0.0072558354
-0.93437292
0.0059529508
-0.99740556
0.0049454976
-1.0655266
0.0041243489
-1.138972
0.0031648477
-1.2179527
0.0021246099
-1.3027864
0.0010539303
-1.3938902
0.013333954
-0.82175664
0.0066777505
-0.87558168
0.0056937751
-0.93411374
0.0050866156
-0.99754668
0.0046415921
-1.0660438
0.0039357102
-1.1397429
0.0030377556
-1.2188658
0.0020358831
-1.3037684
0.0010065122
-1.3948967
0.013264579
-0.77095948
0.0054744825
-0.82055338
0.0048856039
-0.87477351
0.0048084407
-0.93383557
0.0048721375
-0.99777722
0.0045226257
-1.0666307
0.0038394158
-1.1405446
0.0029418441
-1.2197718
0.0019563679
-1.3047182
0.00096003493
-1.3958567
0.012823256
-0.72354216
0.0035620471
-0.76904704
0.0034524609
-0.81912023
0.0040554575
-0.87402053
0.0047761751
-0.9337396
0.0048984491
-0.99815304
0.0045256195
-1.0673169
0.0037813243
-1.141384
0.0028530171
-1.2206684
0.0018752215
-1.3056334
0.00091165935
-1.3967684
0.011989416
-0.67927529
0.00086260187
-0.72084271
0.0013207652
-0.76691534
0.0027790063
-0.81784378
0.0043644595
-0.87360881
0.0050892599
-0.93393041
0.005114807
-0.99874223
0.0045713318
-1.0681069
0.003716016
-1.142247
0.0027536371
-1.2215468
0.0017875703
-1.3065093
0.00086023423
-1.3976286
0.010745363
-0.6379473
-0.0027073507
-0.67570534
-0.0016037494
-0.7179182
0.00091749075
-0.76505383
0.0036150799
-0.8170944
0.0051383756
-0.87365793
0.0056364823
-0.93445209
0.0053486699
-0.99951957
0.0045730711
-1.068964
0.0036189764
-1.1431124
0.0026361331
-1.2223954
0.0016910755
-1.3073402
0.00080612824
-1.3984348
0.00907967
-0.59936415
-0.0072326009
-0.63342205
-0.0054309106
-0.67187818
-0.0016101641
-0.71539054
0.0024976638
-0.76393641
0.0050551027
-0.81701113
0.0061287398
-0.87415018
0.006158713
-0.93526213
0.0054693677
-1.0004159
0.0044999589
-1.069845
0.0034805723
-1.1439568
0.002500149
-1.2232045
0.001586741
-1.3081208
0.00074959653
-1.3991844
0.0069921102
-0.56335303
-0.012787767
-0.59380899
-0.010264997
-0.62858797
-0.0048861289
-0.66860222
0.00097492129
-0.7138678
0.0048485399
-0.76372985
0.006657438
-0.81753983
0.0070538213
-0.87504529
0.0064573384
-0.9362501
0.0054360921
-1.001352
0.0043438261
-1.0707082
0.0033066662
-1.1447633
0.0023494351
-1.2239672
0.0014766171
-1.3088478
0.00069034924
-1.3998747
0.0044690672
-0.52976578
-0.019439884
-0.55670092
-0.016204451
-0.58786953
-0.0089816722
-0.62449242
-0.00097597478
-0.66665132
0.0045304454
-0.7135497
0.0072810466
-0.76435346
0.0080999377
-0.81858594
0.0075891819
-0.87617714
0.0064682667
-0.93728228
0.0052534911
-1.0022617
0.0041245692
-1.0715261
0.0031090129
-1.1455229
0.0021893109
-1.2246799
0.0013621419
-1.3095196
0.00062861051
-1.4005033
0.0015124654
-0.49842188
-0.027256915
-0.52194875
-0.023346418
-0.54955895
-0.013965441
-0.58288576
-0.0033740906
-0.62209431
0.0041248047
-0.66624568
0.0080594418
-0.7143281
0.0093678181
-0.76562134
0.0089233666
-0.81992013
0.0076401489
-0.87734902
0.0062350735
-0.93826386
0.0049687496
-1.0031058
0.0038699789
-1.0722871
0.0028995033
-1.1462331
0.0020244581
-1.2253422
0.0012443828
-1.3101354
0.00056484134
-1.4010682
-0.0017968948
-0.46898242
-0.0362664
-0.48941239
-0.031801903
-0.51349326
-0.019903248
-0.54362114
-0.0062355393
-0.58002431
0.0036627948
-0.6216323
0.0090519532
-0.66723819
0.010935924
-0.7158962
0.010523714
-0.76722169
0.0090018271
-0.82128181
0.0073189514
-0.8784329
0.0058493285
-0.93914444
0.0046355683
-1.0038714
0.0036040188
-1.0729916
0.002687289
-1.1468959
0.001857239
-1.225955
0.0011239975
-1.3106945
0.00049922101
-1.4015674
-0.0054181724
-0.44117414
-0.046378498
-0.45887032
-0.041693434
-0.47952086
-0.026859529
-0.50653698
-0.0095741913
-0.54028249
0.0031752323
-0.57953675
0.010313186
-0.62289353
0.012888287
-0.66919055
0.012476179
-0.71784867
0.010617684
-0.76883754
0.0085405095
-0.82250337
0.0067779244
-0.87936149
0.0054007104
-0.93990958
0.0042966479
-1.0045641
0.0033430259
-1.0736474
0.002476757
-1.1475155
0.0016880025
-1.226519
0.0010010313
-1.3111963
0.00043191981
-1.4019993
-0.0090789782
-0.41375216
-0.057555411
-0.42999722
-0.053022315
-0.44754144
-0.034913351
-0.47146704
-0.013392766
-0.50271841
0.0026955835
-0.53980284
0.011896583
-0.58112015
0.015308315
-0.62531356
0.014880744
-0.67159512
0.012569888
-0.71980087
0.0099472137
-0.77024425
0.0077673677
-0.82349281
0.0061572848
-0.88011807
0.004959626
-0.94057256
0.003979748
-1.0052008
0.0030943868
-1.074265
0.0022677749
-1.1480952
0.001515779
-1.2270338
0.00087507965
-1.3116395
0.00036335332
-1.4023627
-0.014449492
-0.38389649
-0.069518269
-0.4017893
-0.065794757
-0.41722478
-0.044073296
-0.4383815
-0.017691659
-0.46716815
0.0022601714
-0.502283
0.013852778
-0.54175904
0.018279341
-0.58409118
0.017841051
-0.62827387
0.014950265
-0.6739755
0.011595346
-0.72144901
0.0088335474
-0.77131043
0.0068925132
-0.82422804
0.0055686252
-0.88072707
0.0045719888
-0.9411648
0.0036964246
-1.0058028
0.0028564105
-1.0748536
0.0020574891
-1.1486369
0.0013394413
-1.2274982
0.00074602154
-1.3120222
0.00029379252
-1.4026564
-0.022152413
-0.35076114
-0.081991507
-0.37142326
-0.079900924
-0.38768313
-0.054152688
-0.40714539
-0.022515926
-0.43355723
0.0019250871
-0.46683306
0.01623853
-0.50466875
0.021881105
-0.5453608
0.021459525
-0.58770965
0.017857513
-0.63118111
0.013549749
-0.6759299
0.0099954874
-0.72261095
0.0075905487
-0.77200846
0.0060910456
-0.82475046
0.0050858201
-0.8812409
0.0042557062
-0.94172408
0.003442085
-1.0063885
0.0026218758
-1.075418
0.0018426168
-1.1491401
0.0011584692
-1.2279106
0.00061446242
-1.3123428
0.00022354783
-1.40288
-0.031524492
-0.3166409
-0.094195711
-0.33855694
-0.093402961
-0.35792122
-0.064408457
-0.37742737
-0.027780902
-0.40188041
0.0016903478
-0.43332249
0.01912168
-0.46971621
0.026184666
-0.50897231
0.025834488
-0.54973577
0.02139488
-0.59124702
0.015884719
-0.63351608
0.011277034
-0.67721145
0.008232194
-0.72325259
0.0064873757
-0.77240479
0.0054769622
-0.8251416
0.0047360998
-0.88172129
0.004000206
-0.9422822
0.0032015779
-1.0069682
0.0023836284
-1.075959
0.001621015
-1.1496027
0.00097285453
-1.228269
0.00048124613
-1.3126005
0.00015321204
-1.4030332
-0.041960726
-0.28355448
-0.10578312
-0.30505349
-0.10462614
-0.32733376
-0.073653976
-0.3486757
-0.033148921
-0.37205935
0.0015629306
-0.401753
0.022564957
-0.43676577
0.031253105
-0.47478465
0.031055232
-0.51419305
0.02566698
-0.55400787
0.018684118
-0.59404642
0.012708755
-0.6349478
0.0087952588
-0.67777451
0.0067078177
-0.72347303
0.0056938288
-0.77262166
0.0050902343
-0.82549573
0.004497379
-0.88221846
0.0037768078
-0.94285743
0.0029604842
-1.0075451
0.0021368607
-1.0764749
0.0013914887
-1.1500213
0.00078284428
-1.2285706
0.00034725978
-1.3127946
8.3070681e-05
-1.4031163
-0.052890729
-0.25297365
-0.1167183
-0.27261931
-0.11340399
-0.29627564
-0.080677057
-0.32031068
-0.037942014
-0.34388261
0.0016605697
-0.37215699
0.026540963
-0.405729
0.037155639
-0.4426683
0.037198339
-0.48092776
0.030776918
-0.51930299
0.022040368
-0.55736412
0.014330059
-0.59566772
0.0092575121
-0.63541006
0.006687156
-0.67775385
0.0056659871
-0.72344519
0.005259686
-0.77279111
0.0048866843
-0.82588504
0.0043194861
-0.88276114
0.0035599256
-0.94345687
0.0027094413
-1.0081176
0.0018778045
-1.0769612
0.0011536714
-1.1503921
0.00058938319
-1.2288127
0.00021357416
-1.3129251
1.0616551e-05
-1.4031269
-0.063867799
-0.22548214
-0.12711942
-0.24257253
-0.12007795
-0.26594535
-0.084808614
-0.29214409
-0.041203885
-0.31704881
0.002161537
-0.34438357
0.031033074
-0.3766491
0.043922774
-0.41249614
0.04432362
-0.44979358
0.036823322
-0.48697417
0.026053457
-0.52331608
0.016189137
-0.55922319
0.0095994985
-0.59600971
0.0063582956
-0.6350812
0.0053002147
-0.67738808
0.0051619935
-0.7233475
0.0051020086
-0.77300644
0.0047869447
-0.8263525
0.0041624101
-0.88336363
0.0033330849
-0.94408052
0.0024407082
-1.0086805
0.0016041201
-1.0774116
0.0009082313
-1.150711
0.00039467089
-1.2289938
8.2569248e-05
-1.312997
-4.9164322e-05
-1.4030777
-0.074575931
-0.20113802
-0.13710368
-0.21549788
-0.12519687
-0.23745361
-0.086141604
-0.26461236
-0.042124348
-0.29122362
0.0033716118
-0.31825888
0.036123019
-0.34947352
0.051467635
-0.38419396
0.052487751
-0.42066027
0.043895155
-0.45686542
0.030829451
-0.49175016
0.018343177
-0.52547012
0.0098014645
-0.55942516
0.0056501243
-0.59530154
0.0045027124
-0.6342837
0.004704794
-0.67693088
0.0050786658
-0.72332416
0.0051229399
-0.77334243
0.0047380709
-0.82692816
0.0039985035
-0.88402905
0.0030821277
-0.94472194
0.0021483631
-1.0092248
0.0013157578
-1.0778192
0.00065715497
-1.1509735
0.00020089119
-1.2291121
-4.5471678e-05
-1.3130007
-0.00011043191
-1.4029673
-0.084814939
-0.17974098
-0.14670512
-0.19153659
-0.12920007
-0.21149468
-0.085166973
-0.23842824
-0.040345038
-0.26639167
0.0058238355
-0.29367585
0.041810171
-0.32394604
0.059746598
-0.35775248
0.061677857
-0.39338407
0.052060407
-0.42882552
0.036481602
-0.46251757
0.020858996
-0.49426598
0.009841952
-0.52551061
0.0044800964
-0.55825513
0.0031694731
-0.5939683
0.0037886355
-0.63336754
0.0047511478
-0.67660336
0.0052748154
-0.72347603
0.0052514711
-0.77385583
0.0046910988
-0.82762076
0.0038032862
-0.8847502
0.0027951695
-0.94536874
0.0018302656
-1.0097393
0.0010146307
-1.0781766
0.00040283233
-1.1511754
5.6958162e-06
-1.2291633
-0.00017424028
-1.3129369
-0.00017010029
-1.4027972
-0.0944366
-0.16103759
-0.15586136
-0.17058474
-0.1323709
-0.18836576
-0.082504221
-0.21415743
-0.035968121
-0.24280516
0.0099755206
-0.27054336
0.048119285
-0.29998496
0.068744722
-0.33294416
0.071747094
-0.36782172
0.061403347
-0.40272701
0.043128868
-0.43547279
0.023813552
-0.46547213
0.0096985251
-0.49412255
0.0027553303
-0.52378584
0.001179867
-0.55626553
0.0022981145
-0.59247778
0.0040174123
-0.6326338
0.0052059117
-0.67653446
0.005662964
-0.72388753
0.0053977888
-0.77456252
0.0046041975
-0.82842167
0.0035548787
-0.88550991
0.0024661796
-0.94600466
0.0014880787
-1.0102127
0.00070383099
-1.0784776
0.00014811453
-1.1513178
-0.00017920504
-1.2291583
-0.00029564528
-1.3128114
-0.00022729763
-1.4025699
-0.1033403
-0.14474028
-0.16445676
-0.15244218
-0.13488097
-0.16807467
-0.078762328
-0.19210765
-0.0294047
-0.22072085
0.015987341
-0.24881698
0.05514892
-0.27757299
0.078367046
-0.30960729
0.082620482
-0.34381755
0.071819892
-0.37823826
0.050874941
-0.41047308
0.027316101
-0.43897533
0.0093509221
-0.46512452
0.00037842197
-0.49174564
-0.0015965637
-0.52100941
0.00010669636
-0.55407411
0.0027733224
-0.59123369
0.0048588141
-0.6322867
0.0059403095
-0.6768118
0.0061061124
-0.72459585
0.0054898289
-0.77544815
0.0044393978
-0.82930619
0.0032406762
-0.88628441
0.0020956776
-0.94661226
0.0011256772
-1.0106346
0.00038738928
-1.0787169
-0.0001037841
-1.1513932
-0.00036172268
-1.2290923
-0.00041133843
-1.3126273
-0.00028153885
-1.4022884
-0.11343143
-0.1538369
-0.17234898
-0.13684806
-0.13686985
-0.1504533
-0.074456587
-0.17238041
-0.02121513
-0.20029722
0.023754769
-0.22848828
0.062990515
-0.25665857
0.088519493
-0.28772544
0.094271308
-0.32125811
0.083209097
-0.35520675
0.059726566
-0.38708989
0.031456948
-0.41461393
0.008793139
-0.43841755
-0.0027515011
-0.4619946
-0.0052975235
-0.48804469
-0.0029127229
-0.51798999
0.00091718625
-0.55221797
0.0041508366
-0.59052571
0.006066505
-0.6324129
0.0067977391
-0.67750343
0.0064678217
-0.72557384
0.00546626
-0.77647502
0.0041736398
-0.83023915
0.0028589228
-0.88704766
0.001688535
-0.94717511
0.00074839572
-1.0109956
7.0109505e-05
-1.0788908
-0.00035058077
-1.1514044
-0.00053678784
-1.2289668
-0.00052046496
-1.3123884
-0.00033237608
-1.401956
-0.12245691
-0.14845546
-0.1805372
-0.14564868
-0.13848641
-0.13523149
-0.069996772
-0.15491312
-0.011987612
-0.18160793
0.033012992
-0.20955544
0.071660471
-0.23715824
0.099118469
-0.26725755
0.10667693
-0.30013106
0.09563711
-0.33368613
0.069736809
-0.365217
0.036299274
-0.39193221
0.0080135897
-0.41383438
-0.0067863197
-0.43438273
-0.010065647
-0.45722648
-0.0068860654
-0.48407134
-0.0016476264
-0.51542518
0.0030097751
-0.55107691
0.0060158928
-0.5904751
0.0074640236
-0.63307918
0.0075449721
-0.67858058
0.006656426
-0.72676401
0.005290263
-0.77759164
0.0038023874
-0.83118261
0.0024157904
-0.88777491
0.0012520202
-0.94767874
0.0003632159
-1.0112887
-0.00024371788
-1.0789977
-0.00058832126
-1.1513529
-0.00070232449
-1.228785
-0.00062204788
-1.3120987
-0.00037914554
-1.4015768
-0.13019511
-0.14378965
-0.18765851
-0.14133415
-0.14135692
-0.14277818
-0.065690081
-0.13953818
-0.0022415908
-0.16465914
0.043427168
-0.19202211
0.081109137
-0.21900411
0.11006881
-0.24810857
0.1196741
-0.28025472
0.10906403
-0.31355797
0.081007417
-0.34495673
0.042037408
-0.37095513
0.0070747929
-0.39099342
-0.011813696
-0.408807
-0.016034114
-0.42841427
-0.011938361
-0.45217418
-0.0050157043
-0.48070326
0.0013721187
-0.51378753
0.0057556433
-0.55081666
0.0081086776
-0.59111975
0.0087291869
-0.6342634
0.0080303961
-0.67995455
0.0066189306
-0.72809268
0.0049550085
-0.77874426
0.0033338292
-0.83210065
0.0019219177
-0.88844481
0.00079600699
-0.94811153
-2.2360858e-05
-1.0115101
-0.0005495276
-1.0790365
-0.00081468622
-1.1512405
-0.00085710827
-1.2285499
-0.00071523673
-1.3117626
-0.0004213587
-1.4011555
-0.1364986
-0.13997407
-0.19358754
-0.13786062
-0.1439144
-0.13877667
-0.06352656
-0.1449417
0.0075902119
-0.14936998
0.054641871
-0.17587384
0.091259223
-0.20217219
0.12124418
-0.23017948
0.13291084
-0.26134532
0.12292149
-0.29411218
0.092924428
-0.32547498
0.048745875
-0.3516652
0.0060826986
-0.36996304
-0.0178163
-0.38499081
-0.023357554
-0.40148356
-0.018193423
-0.4221592
-0.009271801
-0.44791808
-0.0008153611
-0.47851578
0.0052547502
-0.51328663
0.0087377178
-0.5514457
0.010036726
-0.59242729
0.009611935
-0.63584494
0.0081893753
-0.68152499
0.0063489999
-0.72948667
0.004472614
-0.77988305
0.002783811
-0.83296255
0.0013909755
-0.88903978
0.00033097283
-0.94846486
-0.00040406142
-1.0116555
-0.00084333268
-1.0790078
-0.0010276865
-1.1510699
-0.0009999927
-1.2282651
-0.00079984115
-1.3113842
-0.00045879011
-1.4006967
-0.14128473
-0.13711898
-0.19820843
-0.13535317
-0.1462431
-0.13553193
-0.061503496
-0.14079973
0.015371032
-0.15272252
0.066294982
-0.16102309
0.10191062
-0.18652524
0.13235732
-0.21328534
0.14569352
-0.24296216
0.13620913
-0.27463296
0.10419055
-0.3053783
0.055600587
-0.3323297
0.0049007363
-0.35048324
-0.024852286
-0.36292705
-0.032071437
-0.37627693
-0.025780549
-0.39389644
-0.014494343
-0.41693666
-0.0036022278
-0.44513122
0.0044884468
-0.47774948
0.0093564998
-0.51390541
0.011491133
-0.55290011
0.011434669
-0.59425002
0.010036324
-0.63769189
0.0080193791
-0.68319537
0.0058648201
-0.73087888
0.0038661871
-0.78096542
0.0021721618
-0.83374373
0.00083827326
-0.88954708
-0.00013400526
-0.94873492
-0.00077368716
-1.0117252
-0.0011218119
-1.0789137
-0.0012256243
-1.1508443
-0.0011304098
-1.2279346
-0.000875621
-1.3109673
-0.0004916244
-1.4002051
-0.14459406
-0.13529355
-0.20144688
-0.13388053
-0.14836973
-0.13322654
-0.059934052
-0.13710137
0.023561898
-0.1489906
0.076098862
-0.1625264
0.1128053
-0.17191777
0.14303982
-0.19720774
0.15720011
-0.22479193
0.14762206
-0.2543751
0.11357885
-0.28402125
0.061017744
-0.31079546
0.0031023649
-0.33053133
-0.033288613
-0.34204691
-0.042291472
-0.35270702
-0.034755118
-0.36730236
-0.020759398
-0.38763138
-0.0070224159
-0.41351647
0.0034445338
-0.4440873
0.0099747022
-0.47836768
0.013119966
-0.51553425
0.013536896
-0.55500234
0.012200938
-0.59641464
0.010004959
-0.63967747
0.0075457118
-0.68487626
0.0051997161
-0.7322124
0.003164673
-0.78195793
0.0015206024
-0.83442606
0.00027785252
-0.88995894
-0.00059035456
-0.94891825
-0.0011269108
-1.0117201
-0.001382356
-1.0787569
-0.001407363
-1.1505673
-0.0012479422
-1.2275622
-0.00094270398
-1.3105163
-0.00052005938
-1.399685
-0.14654055
-0.13449946
-0.20332794
-0.13341249
-0.15024733
-0.13200292
-0.059089445
-0.13407115
0.031648278
-0.14518775
0.087245751
-0.16013749
0.12115295
-0.17087406
0.15296898
-0.18184693
0.16686197
-0.2068696
0.15638669
-0.23355656
0.11978135
-0.26057761
0.062355211
-0.28535872
-0.0013096935
-0.3063834
-0.04360057
-0.32021937
-0.054111116
-0.33022727
-0.045187392
-0.34227474
-0.028119058
-0.3599427
-0.011100461
-0.38355334
0.0021200057
-0.41219195
0.010605182
-0.44471778
0.014952776
-0.48020049
0.015959632
-0.51795698
0.014731838
-0.55753324
0.012351589
-0.59876127
0.0095542877
-0.64168604
0.006815995
-0.68649254
0.0043951751
-0.73344291
0.0023990377
-0.78283637
0.0008496009
-0.83499781
-0.00027802414
-0.89027127
-0.0010300251
-0.94901514
-0.0014598408
-1.0116426
-0.0016231155
-1.0785412
-0.0015721972
-1.1502431
-0.001352562
-1.2271524
-0.0010012334
-1.3100351
-0.00054430686
-1.3991407
-0.14716461
-0.13483198
-0.20393012
-0.13389728
-0.15180196
-0.13185787
-0.059200366
-0.131892
0.039112763
-0.14153563
0.099260301
-0.1572023
0.13095182
-0.16993636
0.15914519
-0.17705027
0.17449063
-0.18947558
0.16243725
-0.21292015
0.12251544
-0.23629064
0.059024368
-0.25724676
-0.010797099
-0.27587131
-0.056193198
-0.29379077
-0.067391628
-0.30693886
-0.05689291
-0.31852175
-0.036561652
-0.33383215
-0.015881001
-0.35516216
0.00052623312
-0.38195956
0.011268171
-0.41285494
0.017020975
-0.44678598
0.018745177
-0.48298604
0.017680197
-0.52090534
0.01510893
-0.56029058
0.011933219
-0.6011402
0.00874929
-0.64361934
0.0058894203
-0.68798679
0.003494986
-0.73453885
0.0015988349
-0.7835856
0.0001775989
-0.83545343
-0.00081840818
-0.89048288
-0.00144726
-0.94902772
-0.0017693997
-1.0114963
-0.0018427597
-1.0782706
-0.0017197999
-1.1498758
-0.0014443951
-1.2267092
-0.001051515
-1.3095279
-0.00056459365
-1.3985761
-0.14628425
-0.13632135
-0.20334213
-0.13541996
-0.15304585
-0.13265338
-0.060341836
-0.1307164
0.045426505
-0.13820574
0.1116104
-0.15388573
0.14189106
-0.16814154
0.16576668
-0.17655785
0.17806806
-0.1806277
0.16606441
-0.19310274
0.12211249
-0.2125172
0.051574235
-0.22884051
-0.024731577
-0.24331229
-0.07038669
-0.26167782
-0.080698709
-0.28048369
-0.068816275
-0.29501549
-0.045905445
-0.30917796
-0.021326047
-0.3283871
-0.0013400178
-0.35329591
0.011995958
-0.38268735
0.019358824
-0.41519278
0.02193578
-0.44997659
0.021097938
-0.48640378
0.018330684
-0.5241271
0.014729382
-0.56308674
0.011035849
-0.60342676
0.0076736683
-0.64540359
0.0048271584
-0.68931896
0.0025406597
-0.73548068
0.00078880455
-0.78419681
-0.00048062244
-0.83579122
-0.0013346703
-0.89059547
-0.0018376186
-0.9489595
-0.0020535125
-1.0112855
-0.0020406618
-1.0779498
-0.001850227
-1.14947
-0.0015237951
-1.2262369
-0.0010939041
-1.3089986
-0.00058116088
-1.3979949
-0.13881799
-0.14393032
-0.20158141
-0.13808207
-0.15403411
-0.13443171
-0.062436314
-0.13055891
0.05012879
-0.13541868
0.12375843
-0.15035377
0.1535647
-0.16555937
0.17265697
-0.17503182
0.18102447
-0.17951427
0.16745407
-0.18201736
0.11915566
-0.19014592
0.041086461
-0.20202943
-0.041424998
-0.21214709
-0.08576462
-0.22793436
-0.092569876
-0.24980665
-0.079226707
-0.27007326
-0.055367929
-0.28555301
-0.027347283
-0.30315672
-0.0034732948
-0.32625383
0.01281344
-0.35411339
0.022001272
-0.3853298
0.025570812
-0.41882782
0.025035485
-0.45391413
0.022071652
-0.49014475
0.017992169
-0.52738988
0.013713433
-0.56576433
0.0097746592
-0.60552775
0.0064135238
-0.64698995
0.0036876703
-0.69046597
0.001568058
-0.73625993
-4.4419123e-06
-0.78467299
-0.0011129157
-0.83601298
-0.0018199129
-0.89061318
-0.0021977665
-0.94881525
-0.0023109671
-1.0110152
-0.0022166018
-1.0775834
-0.0019637786
-1.14903
-0.0015912305
-1.2257396
-0.0011288316
-1.3084509
-0.00059425604
-1.3974007
-0.14165638
-0.19874302
-0.14225405
-0.14018843
-0.15490261
-0.13721357
-0.065348601
-0.13151942
0.052963275
-0.13339339
0.13513853
-0.14679878
0.16552448
-0.16231355
0.179627
-0.17252941
0.18339087
-0.17739822
0.16773756
-0.17979776
0.11733068
-0.18019239
0.028782126
-0.17784158
-0.059177904
-0.18427652
-0.10150432
-0.19640739
-0.1033647
-0.21713953
-0.086816472
-0.24221689
-0.063299953
-0.26214123
-0.03365968
-0.27924061
-0.0057889109
-0.30084111
0.01369354
-0.32713392
0.024994207
-0.35710633
0.029686406
-0.38944539
0.029538379
-0.42333071
0.026385386
-0.45822787
0.021772158
-0.49392474
0.016821843
-0.53049829
0.012218458
-0.56820813
0.0082691374
-0.60738336
0.0050482755
-0.64835056
0.002519767
-0.69141768
0.00060687002
-0.73687124
-0.00077697191
-0.78500893
-0.0017098823
-0.83612301
-0.0022697155
-0.89054123
-0.0025257798
-0.94860043
-0.0025411987
-1.0106906
-0.0023708379
-1.0771763
-0.0020610138
-1.1485602
-0.0016472977
-1.2252212
-0.0011567592
-1.3078884
-0.00060413607
-1.3967966
-0.14082392
-0.15573508
-0.14608245
-0.19491462
-0.14639611
-0.13530508
-0.069117003
-0.13344516
0.053761
-0.13231715
0.14518779
-0.14344265
0.17728962
-0.15856393
0.18649849
-0.16918503
0.18526381
-0.17440235
0.16686315
-0.17652381
0.11402274
-0.17648981
0.021748441
-0.1731587
-0.076779627
-0.16023986
-0.11691389
-0.16886695
-0.1136588
-0.18611329
-0.091849682
-0.21210632
-0.068050118
-0.23746673
-0.039324485
-0.25647643
-0.0081860541
-0.27684347
0.014684226
-0.30183179
0.028320495
-0.33046021
0.034323243
-0.36174317
0.034648094
-0.39455511
0.031321723
-0.42826705
0.026119578
-0.46257529
0.020400884
-0.49750378
0.015030098
-0.53330993
0.010406012
-0.570345
0.0066275744
-0.60896266
0.0036459148
-0.6494767
0.0013632009
-0.69217401
-0.00032152016
-0.7373267
-0.0015040987
-0.78521472
-0.0022648357
-0.83612789
-0.002681049
-0.89038596
-0.0028206538
-0.94832098
-0.0027443106
-1.0103172
-0.0025039213
-1.0767334
-0.0021426433
-1.1480649
-0.0016926574
-1.2246853
-0.0011781803
-1.3073143
-0.00061105641
-1.3961855
-0.13616865
-0.073772271
-0.1452691
-0.15654843
-0.15096851
-0.19034222
-0.15114779
-0.12950808
0.052480671
-0.13216484
0.15339034
-0.1405197
0.18836538
-0.1545184
0.19307898
-0.16514441
0.18669262
-0.17061385
0.16477729
-0.17231649
0.1091561
-0.17165718
0.013383607
-0.16812498
-0.087931467
-0.16200686
-0.13168659
-0.14546715
-0.12367512
-0.15885063
-0.095595803
-0.18236717
-0.069180623
-0.21097582
-0.042635281
-0.23415593
-0.010498543
-0.25416394
0.015892746
-0.27805199
0.031954122
-0.30546542
0.039492871
-0.33562984
0.040395974
-0.36749105
0.03692359
-0.40015698
0.031080909
-0.43322838
0.024489512
-0.46666391
0.018233267
-0.50070695
0.012834125
-0.53573805
0.0084245492
-0.57214197
0.0049412364
-0.61025798
0.0022582
-0.6503717
0.00024781521
-0.69274334
-0.0012009479
-0.73762985
-0.0021812255
-0.78529833
-0.0027737485
-0.83603519
-0.0030523887
-0.89015422
-0.0030821998
-0.94798309
-0.0029208131
-1.0099003
-0.00261669
-1.0762594
-0.0022095224
-1.147548
-0.0017280319
-1.2241354
-0.0011935968
-1.3067318
-0.00061527287
-1.3955702
-0.13305859
0.049370609
-0.13975089
-0.079290482
-0.15017894
-0.157338
-0.15623868
-0.18525133
-0.15635913
-0.12302964
0.15946581
-0.13824031
0.19828019
-0.15043451
0.19916782
-0.16060725
0.18767361
-0.1661254
0.16144984
-0.1672864
0.10262104
-0.16578142
0.0036681307
-0.1619417
-0.099570513
-0.15648593
-0.1436365
-0.15005695
-0.13341487
-0.13572741
-0.099086572
-0.15535986
-0.067594029
-0.18395376
-0.042276755
-0.21133434
-0.011882564
-0.23277191
0.017359962
-0.25563116
0.035944229
-0.28204209
0.045140591
-0.31111314
0.046806005
-0.34203987
0.04322467
-0.37379213
0.036698239
-0.40577431
0.029125657
-0.43786453
0.021850565
-0.47028121
0.015558295
-0.50343111
0.010433025
-0.53774652
0.0063952843
-0.57359602
0.0032796325
-0.61127942
0.00092426854
-0.65104816
-0.00080631523
-0.69313798
-0.0020196531
-0.73779142
-0.002803111
-0.78526897
-0.0032345989
-0.83585298
-0.0033832358
-0.88985319
-0.0033109106
-0.94759299
-0.0030716506
-1.0094453
-0.0027101643
-1.0757587
-0.0022625856
-1.1470135
-0.0017541652
-1.2235748
-0.0012035146
-1.3061436
-0.00061703435
-1.3949532
-0.13682964
0.16323687
-0.13472765
0.044347372
-0.14413662
-0.085332798
-0.15548294
-0.15809374
-0.16172565
-0.17988481
-0.16187461
-0.11609378
0.20657204
-0.14653216
0.20454759
-0.15581428
0.18813202
-0.16106566
0.15691895
-0.16159452
0.094419731
-0.15908509
-0.0073208989
-0.15479239
-0.11157512
-0.14993709
-0.15578516
-0.14433727
-0.14474708
-0.13872473
-0.10277877
-0.13203522
-0.064706962
-0.15824693
-0.038203168
-0.18802735
-0.010949794
-0.21226711
0.019160566
-0.23457251
0.040323521
-0.26001045
0.051255642
-0.28815715
0.053846307
-0.31815344
0.050261806
-0.34907701
0.043012391
-0.38010628
0.034347686
-0.41099633
0.025905287
-0.44191925
0.018582271
-0.47330519
0.012641714
-0.5056398
0.0079889205
-0.53934016
0.0044097167
-0.57472611
0.0016924167
-0.61204757
-0.0003299589
-0.65152451
-0.0017858344
-0.6933718
-0.0027709203
-0.73782361
-0.0033672503
-0.78513631
-0.0036465029
-0.83558971
-0.0036740211
-0.88949008
-0.0035077985
-0.94715684
-0.0031980057
-1.0089575
-0.0027855064
-1.0752358
-0.0023028262
-1.1464648
-0.0017718148
-1.2230065
-0.0012084314
-1.3055522
-0.00061658342
-1.3943366
-0.14300308
0.21274548
-0.13587886
0.16438808
-0.13747106
0.03768181
-0.14915024
-0.091665495
-0.16100728
-0.15881211
-0.16728133
-0.17447809
-0.16753145
-0.10891557
0.20897794
-0.15096251
0.18793104
-0.1556133
0.15127884
-0.15542554
0.084688679
-0.15186347
-0.019330704
-0.14707528
-0.12359151
-0.14277601
-0.16770611
-0.13801614
-0.156301
-0.13278335
-0.11155222
-0.12995128
-0.061682003
-0.13506018
-0.031406808
-0.16504329
-0.006833392
-0.19214375
0.021742397
-0.21484895
0.04508679
-0.23933578
0.057834141
-0.26658895
0.061470091
-0.29578093
0.058035833
-0.32592747
0.050065007
-0.35612962
0.040194932
-0.38595352
0.030421453
-0.4155125
0.021907403
-0.44524438
0.015033971
-0.47569744
0.0096969642
-0.50734785
0.0056202259
-0.54055067
0.0025293899
-0.57556308
0.00021023525
-0.61258776
-0.0014911968
-0.65181915
-0.0026832144
-0.6934595
-0.003452466
-0.73773839
-0.0038725183
-0.7849103
-0.0040099807
-0.83525375
-0.0039259023
-0.88907197
-0.0036742464
-0.9466806
-0.0033012831
-1.0084417
-0.0028439647
-1.0746947
-0.0023312575
-1.1459054
-0.0017817303
-1.2224332
-0.0012088343
-1.3049599
-0.0006141515
-1.3937225
-0.14625667
0.21223153
-0.13960727
0.21647389
-0.13618803
0.16310504
-0.14101378
0.029545354
-0.15459423
-0.098078548
-0.1666058
-0.15948763
-0.17278006
-0.16922948
-0.17316438
-0.10170761
0.1869475
-0.14997897
0.14464979
-0.14898425
0.073702143
-0.14443901
-0.031930919
-0.13926325
-0.13509556
-0.13557124
-0.17885906
-0.13162305
-0.16756279
-0.12675435
-0.12138922
-0.12294635
-0.064997459
-0.12663583
-0.023257055
-0.14320993
0.00043713856
-0.17231382
0.025848209
-0.19624956
0.050216282
-0.21997844
0.064848686
-0.24635033
0.069661709
-0.27478057
0.066499103
-0.3042442
0.057881853
-0.33374431
0.046708071
-0.36264276
0.035424194
-0.39095627
0.02553343
-0.41913853
0.017588032
-0.44779844
0.011485737
-0.47748622
0.006876435
-0.50860406
0.0034033052
-0.54142458
0.00079055985
-0.5761434
-0.0011514541
-0.6129275
-0.0025500434
-0.65195232
-0.0034954477
-0.69341652
-0.0040632668
-0.73754765
-0.0043195336
-0.78460075
-0.0043263644
-0.83485329
-0.0041404691
-0.88860575
-0.0038119127
-0.94616997
-0.003383007
-1.0079027
-0.0028868295
-1.0741391
-0.0023488959
-1.1453382
-0.0017846527
-1.2218574
-0.0012051911
-1.3043689
-0.00060995687
-1.3931125
-0.14440288
0.18509371
-0.1414585
0.21408275
-0.13763209
0.21791796
-0.13731909
0.15941034
-0.14528795
0.020239069
-0.16026449
-0.10441986
-0.17215342
-0.16011427
-0.17811382
-0.16428004
-0.17859992
-0.094701935
0.13718319
-0.14251237
0.061851922
-0.13713403
-0.044530675
-0.13183925
-0.14544905
-0.12890975
-0.18867136
-0.12575895
-0.17799994
-0.12118591
-0.13183681
-0.11630676
-0.070079467
-0.11786434
-0.020607486
-0.1292854
0.010111813
-0.1528846
0.032030664
-0.17849628
0.055817132
-0.20185041
0.072254447
-0.2273842
0.078387918
-0.25507654
0.075640928
-0.28392239
0.066452196
-0.31281454
0.053925072
-0.34096131
0.040942174
-0.36816074
0.029459859
-0.39488269
0.020277805
-0.4218283
0.013315042
-0.44962775
0.008134037
-0.47874382
0.004274439
-0.50947519
0.0013794164
-0.54201344
-0.0007899451
-0.57650491
-0.0023854476
-0.6130921
-0.003504683
-0.65194309
-0.0042229856
-0.6932568
-0.0046044131
-0.73726277
-0.0047101401
-0.78421697
-0.004597575
-0.83439618
-0.004319702
-0.88809796
-0.003922645
-0.94563033
-0.0034447744
-1.0073447
-0.0029154046
-1.0735726
-0.0023567526
-1.1447661
-0.0017813011
-1.2212813
-0.0011979417
-1.3037809
-0.00060418599
-1.3925083
-0.13629298
0.1290733
-0.13875947
0.18239468
-0.13795381
0.21440446
-0.13662369
0.21722256
-0.13924369
0.15336609
-0.15013625
0.010110835
-0.16601769
-0.11055559
-0.17752713
-0.16070096
-0.18318998
-0.15968998
-0.18366371
-0.088177704
0.049561382
-0.13022182
-0.056412752
-0.12525196
-0.15397419
-0.12331411
-0.19657729
-0.12100382
-0.18713745
-0.11662144
-0.14236478
-0.11065793
-0.077072629
-0.1093136
-0.018841069
-0.11963075
0.015835488
-0.13500907
0.040498177
-0.16135212
0.062143608
-0.18482275
0.079974026
-0.20956999
0.087593106
-0.23658939
0.085448315
-0.26488392
0.075786025
-0.29325622