/*--------------------------------*- C++ -*----------------------------------*\
  =========                 |
  \\      /  F ield         | OpenFOAM: The Open Source CFD Toolbox
   \\    /   O peration     | Website:  https://openfoam.org
    \\  /    A nd           | Version:  8
     \\/     M anipulation  |
\*---------------------------------------------------------------------------*/
FoamFile
{
    version     2.0;
    format      ascii;
    class       volScalarField;
    location    "100.9663773";
    object      pMean;
}
// * * * * * * * * * * * * * * * * * * * * * * * * * * * * * * * * * * * * * //

dimensions      [0 2 -2 0 0 0 0];

internalField   nonuniform List<scalar> 
9200
(
-0.00073495315
-0.00072449621
-0.0016367671
-0.00070678679
-0.0016090329
-0.0027409134
-0.00068535938
-0.0015621055
-0.0026989081
-0.0037684701
-0.00065382424
-0.0015018461
-0.0026246867
-0.0037148658
-0.0048500471
-0.00062020284
-0.0014181532
-0.0025273919
-0.003617186
-0.0047876323
-0.0059247808
-0.00057944795
-0.0013251547
-0.0023941938
-0.0034893811
-0.0046693776
-0.0058575952
-0.0070135869
-0.00053610975
-0.0012161006
-0.002243344
-0.0033146278
-0.0045148054
-0.0057242623
-0.0069455418
-0.0081038152
-0.00048976889
-0.0010981532
-0.0020674604
-0.0031140832
-0.0043024083
-0.0055510724
-0.0068024239
-0.0080395112
-0.0091972902
-0.0004422734
-0.00097114649
-0.0018753001
-0.0028792443
-0.0040564155
-0.0053103552
-0.0066181482
-0.0078931384
-0.0091413987
-0.010286088
-0.0003942831
-0.00083864285
-0.0016675175
-0.0026204444
-0.0037668462
-0.0050288403
-0.0063578982
-0.0077071673
-0.0089986226
-0.010243494
-0.011367348
-0.00034718339
-0.00070275228
-0.0014491241
-0.0023388279
-0.0034448885
-0.0046948618
-0.0060507277
-0.0074384938
-0.0088206793
-0.010111662
-0.011342899
-0.012432369
-0.0003024496
-0.00056606767
-0.0012238533
-0.0020402441
-0.0030924681
-0.0043199144
-0.0056825593
-0.0071180152
-0.0085552971
-0.0099522966
-0.011229588
-0.012430835
-0.013476232
-0.00026160887
-0.00043122877
-0.00099627738
-0.0017291686
-0.0027161789
-0.003905633
-0.0052654142
-0.0067286421
-0.0082347259
-0.0097030397
-0.011099469
-0.01234364
-0.013502142
-0.014489947
-0.00022621476
-0.00030107932
-0.00077091372
-0.0014109359
-0.0023213553
-0.0034593429
-0.0047996468
-0.0062825582
-0.0078383926
-0.0093970321
-0.010879547
-0.01225362
-0.013448551
-0.014547532
-0.015467999
-0.00019691467
-0.00017844524
-0.00055228163
-0.0010908107
-0.0019142582
-0.0029866683
-0.0042929156
-0.0057786462
-0.0073776533
-0.0090096438
-0.010603339
-0.01207663
-0.013409319
-0.01453468
-0.015561031
-0.016402249
-0.00017344102
-6.6846731e-05
-0.00034449187
-0.00077452231
-0.0015009027
-0.0024946004
-0.0037511543
-0.005224202
-0.0068504275
-0.0085509256
-0.010241755
-0.011846131
-0.013288804
-0.014556442
-0.015595551
-0.016533933
-0.017287561
-0.00015566636
2.8407251e-05
-0.00015185295
-0.00046783925
-0.0010877253
-0.0019902548
-0.0031818577
-0.004625206
-0.0062630179
-0.0080175461
-0.0098029647
-0.011528259
-0.013120037
-0.014505581
-0.015687852
-0.016621729
-0.017460531
-0.01811736
-0.0001419109
0.00010372322
1.9924072e-05
-0.00017678774
-0.0006812509
-0.0014801885
-0.0025927376
-0.0039891975
-0.0056209273
-0.0074141611
-0.0092816104
-0.011128796
-0.012864132
-0.014414467
-0.015719309
-0.016793149
-0.017606708
-0.018333573
-0.01888734
-0.00012905925
0.00015492182
0.00016751779
9.135328e-05
-0.00028763918
-0.00097167389
-0.001991309
-0.0033245862
-0.0049318069
-0.0067456457
-0.0086809705
-0.0106395
-0.012524034
-0.014239058
-0.015721339
-0.016918513
-0.017864676
-0.018542222
-0.019148214
-0.019593091
-0.00011564522
0.00017078331
0.00028955578
0.0003313081
8.664244e-05
-0.00047164169
-0.0013851109
-0.0026400074
-0.0042043642
-0.0060195794
-0.0080045473
-0.010062363
-0.012088135
-0.013979147
-0.015644712
-0.017028212
-0.01809437
-0.018892801
-0.019422508
-0.019899284
-0.020231946
-8.9750693e-05
0.00014369977
0.00037890277
0.00054099273
0.00043395146
1.209486e-05
-0.00078195587
-0.0019440034
-0.0034478914
-0.0052447383
-0.0072594366
-0.0093988167
-0.011556513
-0.013619361
-0.015485869
-0.017068035
-0.018325208
-0.01923566
-0.019870419
-0.020241184
-0.020583349
-0.020802023
-4.2747676e-05
8.1354305e-05
0.000430905
0.00071086555
0.0007527328
0.00047081604
-0.00019012918
-0.0012453227
-0.0026720202
-0.0044311294
-0.0064543101
-0.0086549067
-0.010928263
-0.013156783
-0.015225372
-0.017030978
-0.018498166
-0.019599318
-0.02033359
-0.020789504
-0.020993851
-0.021197459
-0.021302258
2.0046284e-05
5.5803639e-06
0.00044751313
0.00082917862
0.0010361397
0.0009009125
0.0003809853
-0.0005525521
-0.0018865486
-0.0035891984
-0.005599572
-0.0078389539
-0.010207552
-0.012588421
-0.01485671
-0.016893401
-0.018602852
-0.019920411
-0.020839965
-0.0213782
-0.021644259
-0.021676454
-0.02174004
-0.021731739
9.4253773e-05
-6.2195136e-05
0.0004467965
0.0009070008
0.0012679015
0.0012981952
0.00092425905
0.000124923
-0.0011013531
-0.002729803
-0.0047065476
-0.0069614556
-0.0094017991
-0.011915636
-0.014374299
-0.016644861
-0.018611444
-0.020185444
-0.021322431
-0.022034943
-0.02236185
-0.022428975
-0.022286428
-0.022210829
-0.022090451
0.00017851334
-0.00010896646
0.00045509952
0.00096344555
0.0014502154
0.0016458291
0.0014365401
0.00077702516
-0.0003258497
-0.0018641268
-0.0037874271
-0.0060344851
-0.0085210481
-0.011143981
-0.013776425
-0.016275972
-0.018509379
-0.020362595
-0.021764593
-0.022689485
-0.023174351
-0.023276654
-0.023139719
-0.022821947
-0.022610426
-0.022380851
0.00027311457
-0.00013092847
0.00048114323
0.0010189474
0.0015940928
0.0019330322
0.001902654
0.0014006472
0.0004282889
-0.0010032578
-0.0028544299
-0.0050711126
-0.0075775653
-0.010282436
-0.01306569
-0.015782336
-0.018283151
-0.020433178
-0.022131014
-0.023323097
-0.024009236
-0.024247805
-0.024116857
-0.023773189
-0.023281963
-0.022938695
-0.022605682
0.00037821394
-0.0001301746
0.00052816555
0.0010869833
0.0017191186
0.002171775
0.0023037067
0.0019820801
0.0011557616
-0.00015932919
-0.0019205407
-0.0040852953
-0.0065851515
-0.0093428172
-0.012249144
-0.015162836
-0.017924701
-0.020379452
-0.022399143
-0.023897318
-0.024846016
-0.025268375
-0.02524722
-0.024877161
-0.024327548
-0.02366666
-0.02319651
-0.022766881
0.00049437403
-0.00010894252
0.00059654229
0.0011741891
0.0018481631
0.0023788591
0.002649127
0.0025000671
0.0018449738
0.00066154372
-0.00099921776
-0.0030915702
-0.0055590759
-0.0083390704
-0.011337296
-0.014421512
-0.017429504
-0.020189058
-0.022547062
-0.024386089
-0.025643738
-0.026316773
-0.026456056
-0.02616485
-0.025554074
-0.024802005
-0.023978126
-0.023386941
-0.022867212
0.00062039555
-7.2276095e-05
0.00068447814
0.0012795526
0.0019883108
0.0025782025
0.0029519916
0.002954082
0.0024726738
0.0014472387
-9.826326e-05
-0.0021052565
-0.0045151415
-0.0072869052
-0.010343427
-0.013566759
-0.016797702
-0.019853932
-0.022558322
-0.024763605
-0.026373423
-0.027350406
-0.027721389
-0.027561581
-0.026995156
-0.026145044
-0.02519637
-0.024218025
-0.023513189
-0.022910673
0.00076199238
-2.4615655e-05
0.00078801604
0.0013988566
0.0021402244
0.0027810722
0.0032319807
0.0033540727
0.0030298773
0.0021732845
0.00076938228
-0.0011377145
-0.0034702855
-0.0062034129
-0.0092829833
-0.012610186
-0.016034614
-0.019369892
-0.022420416
-0.025009122
-0.02700589
-0.028337997
-0.02899969
-0.02904562
-0.028576766
-0.027733514
-0.026649362
-0.0255121
-0.024388927
-0.0235787
-0.022901215
0.00092350531
3.9550655e-05
0.00090240473
0.0015270377
0.0023010132
0.0029898507
0.0035055043
0.003714931
0.0035271695
0.0028262898
0.0015794379
-0.00020290535
-0.0024403407
-0.005105875
-0.0081732969
-0.011566204
-0.015149386
-0.01873816
-0.02212513
-0.025106003
-0.027516491
-0.029247561
-0.030258143
-0.030573422
-0.030278066
-0.029494244
-0.02837737
-0.027067048
-0.02575141
-0.024494031
-0.023587223
-0.022842317
0.0010973524
0.00011319477
0.001027441
0.0016579871
0.0024659379
0.0032010839
0.0037792416
0.0040627814
0.0039749971
0.0034145851
0.0023156107
0.00067474553
-0.0014407386
-0.0040145488
-0.0070328974
-0.010451686
-0.014154494
-0.017964868
-0.02166891
-0.025041611
-0.027884481
-0.030050961
-0.031462781
-0.032111431
-0.03205628
-0.031408009
-0.030309109
-0.028925015
-0.027399298
-0.025917127
-0.024536934
-0.023542797
-0.022737534
0.0012788188
0.0001949863
0.0011612578
0.0017863175
0.0026301817
0.0034096942
0.0040509018
0.0044059269
0.004398635
0.0039469651
0.0029787135
0.0014765943
-0.00049609192
-0.0029461126
-0.0058821648
-0.0092850942
-0.013065373
-0.017059887
-0.021053886
-0.024807956
-0.028092706
-0.030723711
-0.032582672
-0.033624457
-0.03387792
-0.033433646
-0.032427696
-0.031017754
-0.029376588
-0.027648263
-0.026012652
-0.024521556
-0.023449557
-0.022590968
0.001462502
0.00028298199
0.0013049284
0.0019123064
0.0027781259
0.003611808
0.0043153167
0.0047437744
0.004812298
0.0044417705
0.0035724482
0.0021932713
0.00037114418
-0.0019248506
-0.0047400953
-0.0080858444
-0.01189945
-0.016036349
-0.02028677
-0.024402146
-0.028129042
-0.031244843
-0.03359003
-0.035079561
-0.035707522
-0.035538509
-0.034694076
-0.033330665
-0.031618573
-0.029733241
-0.027816957
-0.026041853
-0.024452031
-0.023311675
-0.02240676
0.0016428109
0.00037499317
0.0014539197
0.002037259
0.0029161143
0.0037822002
0.0045697528
0.0050712066
0.0052183039
0.004916244
0.0041093827
0.0028305619
0.0011480248
-0.000976241
-0.0036324426
-0.0068768195
-0.010676297
-0.014910233
-0.01937831
-0.023827167
-0.02798581
-0.031597482
-0.034460269
-0.036446407
-0.03751098
-0.03768766
-0.037077263
-0.03582767
-0.034113139
-0.032111194
-0.029997396
-0.027909078
-0.026008976
-0.024332665
-0.023133262
-0.022188816
0.0018138481
0.00046885671
0.0016040416
0.0021565613
0.0030441556
0.003936308
0.0047793593
0.0053864878
0.0056106856
0.0053761713
0.0046151818
0.0033951776
0.0018320444
-0.0001197245
-0.002587476
-0.005683331
-0.0094189222
-0.013700488
-0.018341642
-0.023090299
-0.027660901
-0.031769815
-0.035172881
-0.037697267
-0.039256205
-0.039846711
-0.039543711
-0.038480234
-0.036827875
-0.034772801
-0.032497117
-0.030172267
-0.027928859
-0.025918508
-0.024167825
-0.02291834
-0.021940984
0.0019693373
0.00056268775
0.0017522799
0.0022664606
0.0031575577
0.0040683439
0.0049696939
0.005649038
0.0059874123
0.0058183913
0.0051067891
0.0039238875
0.0024354421
0.00063671385
-0.0016279233
-0.0045338431
-0.008152906
-0.012426856
-0.017194221
-0.02220241
-0.027157937
-0.031754757
-0.035711268
-0.038808246
-0.040913009
-0.041982696
-0.042059569
-0.041256751
-0.039736986
-0.037689791
-0.035309755
-0.032778794
-0.030261984
-0.027880942
-0.02577509
-0.023961881
-0.02267085
-0.021666907
0.0020994403
0.00065641693
0.0018990682
0.0023674459
0.0032532448
0.0041718296
0.0051270119
0.0058944823
0.006306444
0.0062450117
0.0055887553
0.0044488037
0.0030029955
0.0013056282
-0.00076124258
-0.0034531228
-0.0069084411
-0.011117644
-0.015952997
-0.021177799
-0.026484666
-0.031550962
-0.036064264
-0.039759103
-0.042454624
-0.044063766
-0.044591844
-0.044124749
-0.042811651
-0.040839391
-0.038411398
-0.035725341
-0.032960098
-0.030271243
-0.027770272
-0.025583428
-0.023719134
-0.022394659
-0.021369928
0.0021936136
0.00075309093
0.0020470964
0.0024659768
0.003331226
0.0042419395
0.0052436508
0.0060958379
0.0066153917
0.0066226543
0.006066326
0.004979129
0.003572351
0.0019331488
1.9994792e-05
-0.0024576496
-0.0057126759
-0.0098046819
-0.014647688
-0.020030336
-0.025652347
-0.031162795
-0.036225471
-0.040534092
-0.043857716
-0.046060885
-0.047107855
-0.047052069
-0.046021587
-0.044196364
-0.041782821
-0.038992517
-0.036022784
-0.033045574
-0.030205299
-0.027601973
-0.025348219
-0.023443749
-0.022093498
-0.021053328
0.00085765687
0.0022509764
0.0021954357
0.0025660626
0.0033975322
0.0042780429
0.0053154665
0.0062436711
0.0068706697
0.0070058418
0.0065214537
0.0055175918
0.00415841
0.00256942
0.00074736049
-0.0015397537
-0.0045861832
-0.0085134819
-0.013311112
-0.018790625
-0.024672307
-0.030598288
-0.036194509
-0.041122882
-0.045102849
-0.047948053
-0.049577143
-0.050006002
-0.049336113
-0.047732998
-0.045402553
-0.042564821
-0.039435278
-0.036206318
-0.033040716
-0.030069672
-0.027381251
-0.025074079
-0.023139704
-0.021770763
-0.02072041
0.0023451155
0.00097445186
0.0022723185
0.0026652915
0.0034589899
0.0042889971
0.0053415341
0.0063328451
0.0070605256
0.0073327894
0.0069989633
0.0060659632
0.0047663806
0.0032359308
0.0014808686
-0.00068315462
-0.003527423
-0.0072693135
-0.011966289
-0.017491456
-0.023570643
-0.029866029
-0.035975979
-0.041519948
-0.046175317
-0.049703138
-0.051971576
-0.0529554
-0.052723357
-0.051420828
-0.049246203
-0.046425083
-0.043185954
-0.039743287
-0.036281455
-0.032951415
-0.02987016
-0.027113304
-0.024765503
-0.022810805
-0.021429391
-0.020373816
0.0027668242
0.0024956662
0.0011019241
0.0022557547
0.0035157971
0.0042866444
0.0053279363
0.0063621119
0.0071800075
0.0075909058
0.0074257859
0.0066504697
0.0054184054
0.0039414446
0.002249331
0.00016832241
-0.0025298359
-0.0060851633
-0.010639888
-0.016154558
-0.022381415
-0.02898503
-0.035575962
-0.041725446
-0.047065897
-0.051307687
-0.054266464
-0.055870784
-0.056152231
-0.055229686
-0.053288239
-0.050552436
-0.047262146
-0.043648791
-0.03992185
-0.036254399
-0.032784083
-0.029612614
-0.026803242
-0.02442682
-0.022460738
-0.021072648
-0.020016082
0.0035715305
0.0028743001
0.0026396545
0.0012339424
0.0021987806
0.004276043
0.0052877978
0.006338058
0.0072291925
0.0077727444
0.0077844006
0.0071951598
0.0061172924
0.0047140569
0.0030657972
0.0010510245
-0.0015543509
-0.0049597231
-0.0093574271
-0.014805563
-0.021127979
-0.02799044
-0.035006069
-0.041742449
-0.047769795
-0.052748255
-0.056441026
-0.058725441
-0.059592504
-0.059129127
-0.057500458
-0.054924788
-0.051646901
-0.047914719
-0.043958043
-0.039977306
-0.036132121
-0.03254529
-0.029302911
-0.026455991
-0.024062121
-0.022092837
-0.020703495
-0.019649691
0.0042638549
0.0036308743
0.0029843089
0.0027690655
0.0013596025
0.0021059859
0.005229582
0.0062753954
0.0072154441
0.0078759027
0.008063419
0.0076802153
0.0067924474
0.0055486022
0.0039594302
0.0019890939
-0.00055740733
-0.0038666135
-0.0081273184
-0.013474466
-0.019832193
-0.026907745
-0.034299565
-0.041577186
-0.04828642
-0.054016961
-0.058478147
-0.06149608
-0.063016089
-0.063088922
-0.061853983
-0.059516631
-0.056321999
-0.05252832
-0.048386529
-0.044119969
-0.039917099
-0.035921953
-0.032241764
-0.028946759
-0.026076266
-0.023675194
-0.021710242
-0.020324583
-0.01927679
0.0051610213
0.0042547256
0.0036907947
0.0030889381
0.0028741813
0.0014613111
0.0019908803
0.0061868079
0.0071536575
0.0079068432
0.0082581772
0.008089502
0.0074200059
0.0063682192
0.0049439673
0.0030112644
0.00049866773
-0.0027630179
-0.0069355316
-0.012178368
-0.018522655
-0.0257537
-0.033484712
-0.041257562
-0.048616604
-0.055108946
-0.06036591
-0.064163533
-0.066397728
-0.067080089
-0.066319116
-0.064301188
-0.061264825
-0.057475465
-0.053198887
-0.048683409
-0.044142313
-0.039749316
-0.035631556
-0.031880104
-0.02854968
-0.025668679
-0.023269829
-0.021315896
-0.019938232
-0.01889926
0.0060820589
0.0050901443
0.0042473596
0.0037425455
0.0031766189
0.0029441411
0.0015280657
0.0018617847
0.0070590023
0.007881368
0.0083741545
0.0084135206
0.0079792873
0.0071481637
0.0059139085
0.0041632603
0.0016521075
-0.0015995721
-0.0057412113
-0.010914551
-0.017224235
-0.024552821
-0.032574215
-0.040813617
-0.048783155
-0.056019948
-0.062097327
-0.066712484
-0.069715717
-0.071075882
-0.070866717
-0.069249605
-0.066451452
-0.062737182
-0.05838524
-0.053663558
-0.048813171
-0.044033829
-0.039482566
-0.035268542
-0.031466795
-0.028117065
-0.025237629
-0.022849523
-0.02091234
-0.0195464
-0.018518885
0.0069461363
0.0059704499
0.0050182817
0.0042325881
0.0037740056
0.0032350537
0.002973736
0.0015639827
0.0017224778
0.0078154997
0.0084274692
0.0086545926
0.008454962
0.0078651778
0.0068445593
0.0052915506
0.0029982896
-0.00030641826
-0.0044836742
-0.0096556955
-0.015942309
-0.023335546
-0.031586297
-0.040256304
-0.048815624
-0.056766034
-0.063663821
-0.069132072
-0.07295287
-0.075052592
-0.075468852
-0.074333434
-0.071854676
-0.068292363
-0.063930616
-0.059054936
-0.053929853
-0.048785084
-0.043804078
-0.039125563
-0.034840453
-0.031008249
-0.02765428
-0.02478729
-0.022417132
-0.020501583
-0.019150928
-0.018137443
0.0077264553
0.0068261068
0.0058546707
0.0049356072
0.00419867
0.0037729642
0.0032558052
0.002964022
0.001575294
0.001579608
0.0084339942
0.0088257535
0.0088447676
0.0084989991
0.0077123887
0.0063736656
0.0043065203
0.0012599373
-0.0030351039
-0.008329415
-0.014661732
-0.022113056
-0.030552852
-0.039596867
-0.04872479
-0.057376815
-0.065073208
-0.071412582
-0.076095182
-0.078990195
-0.080100039
-0.079524005
-0.077446866
-0.074116008
-0.069817102
-0.064846737
-0.059491383
-0.054007358
-0.048609565
-0.043462909
-0.038687062
-0.034354906
-0.03051096
-0.027166385
-0.024320892
-0.021974712
-0.020085746
-0.018754184
-0.017756588
0.008411485
0.0076275437
0.0067009228
0.005726279
0.0048297739
0.0041339148
0.0037321107
0.0032381978
0.0029175167
0.0015650829
0.0014387847
0.0089418449
0.0091562992
0.0090406318
0.0084920176
0.0073861426
0.0055535751
0.0027768958
-0.0012112911
-0.0067155314
-0.013302642
-0.020875477
-0.029487909
-0.038865724
-0.048515781
-0.057862688
-0.066353994
-0.073554227
-0.079129768
-0.082872763
-0.084737912
-0.084794358
-0.083198943
-0.080181785
-0.076022555
-0.071024617
-0.06549116
-0.059704124
-0.053907213
-0.048297621
-0.043020398
-0.038176076
-0.03381985
-0.029981051
-0.026657079
-0.02384059
-0.02152492
-0.019668351
-0.018358706
-0.017376994
0.0090188867
0.0083734559
0.0075204745
0.006561933
0.0055756085
0.0046901568
0.0040307401
0.0036520449
0.0031849233
0.0028391089
0.0015356032
0.001308163
0.0094031366
0.0094920642
0.0091672657
0.0082977555
0.0067159564
0.004217041
0.00054218243
-0.0045974838
-0.011526709
-0.0195422
-0.028384746
-0.038075291
-0.048214299
-0.058224695
-0.067516727
-0.075580166
-0.082051923
-0.086685779
-0.089363439
-0.090119917
-0.089083328
-0.086461299
-0.082522031
-0.077569602
-0.071918819
-0.065873042
-0.059704773
-0.053641494
-0.047860687
-0.042487121
-0.037602128
-0.033242614
-0.029422752
-0.02612865
-0.023349854
-0.021073265
-0.019253037
-0.017964166
-0.016979709
0.0095967022
0.0090689438
0.008320041
0.0073982819
0.0063984224
0.0053896531
0.0045121067
0.003889267
0.0035367165
0.0031008546
0.0027368839
0.0014937925
0.0011793103
0.0098626174
0.0097371711
0.0090862997
0.0077573585
0.0055513876
0.0022033484
-0.0025683501
-0.0090786154
-0.017626509
-0.027157619
-0.037215648
-0.047829775
-0.058482133
-0.068561235
-0.077502606
-0.084879415
-0.090417266
-0.093961103
-0.095478965
-0.095073315
-0.092926173
-0.089288311
-0.08445886
-0.078758691
-0.072507921
-0.066004237
-0.05950637
-0.053222999
-0.047311029
-0.041874389
-0.036974011
-0.03262804
-0.028838537
-0.025585708
-0.022856775
-0.020625055
-0.018837208
-0.017544486
-0.016559181
0.010160667
0.009745223
0.0090908776
0.0082424155
0.007247705
0.0061955144
0.0051623351
0.0042978157
0.003715995
0.0033935955
0.0029930059
0.0026237776
0.0014412737
0.0010541459
0.010210167
0.0097489849
0.0086494859
0.0067353193
0.0037376699
-0.00065038563
-0.0067376675
-0.014835051
-0.025143884
-0.036201188
-0.047343673
-0.058640347
-0.069499469
-0.079323012
-0.087622409
-0.094079968
-0.098514708
-0.10085325
-0.10114456
-0.099547794
-0.096292718
-0.091666572
-0.085990646
-0.07959669
-0.072803619
-0.065898498
-0.059123032
-0.052665798
-0.046661967
-0.041192654
-0.036297303
-0.03197887
-0.028234625
-0.02503971
-0.0223685
-0.020173593
-0.018383235
-0.01710232
-0.016125958
0.010589429
0.010391835
0.0098460399
0.0090714783
0.0081231796
0.0070499014
0.0059460925
0.004896077
0.0040549431
0.0035213527
0.0032328276
0.0028774746
0.0024927245
0.0013813304
0.00093553779
0.010289305
0.0093857405
0.0077309541
0.0050876554
0.0011191635
-0.0045227945
-0.012153302
-0.022013929
-0.03415775
-0.046670551
-0.058667645
-0.070333352
-0.081043024
-0.090285973
-0.097682169
-0.10302763
-0.106224
-0.10727614
-0.10629995
-0.10350578
-0.099163931
-0.093590517
-0.087122284
-0.080094701
-0.072820098
-0.065571117
-0.058570648
-0.051985393
-0.045925818
-0.040448332
-0.035575139
-0.031303419
-0.027626593
-0.024499726
-0.021872989
-0.0196609
-0.017910115
-0.01664532
-0.015681043
0.010707139
0.010877213
0.010550926
0.0098836277
0.008987933
0.0079392823
0.0067955647
0.0056520374
0.0046010991
0.0037955949
0.003318096
0.0030690207
0.0027502677
0.002351287
0.0013146694
0.00082269597
0.0099636595
0.0085248978
0.0062022674
0.002668285
-0.0024753461
-0.0096065748
-0.018982162
-0.030730493
-0.044683764
-0.058478171
-0.071010292
-0.08266692
-0.092858433
-0.10123169
-0.10750509
-0.11158747
-0.11344573
-0.11315857
-0.11089917
-0.10692161
-0.10153046
-0.095062648
-0.087863887
-0.08026707
-0.072573681
-0.065039771
-0.05786704
-0.051196127
-0.0451099
-0.039645129
-0.034818345
-0.030622171
-0.027025586
-0.023946993
-0.021286341
-0.01913084
-0.017419226
-0.016175804
-0.015224489
0.010386541
0.011010565
0.011064558
0.010618259
0.0098267788
0.0088167869
0.0076803978
0.0064858391
0.0053247422
0.0042914616
0.0035345406
0.003113096
0.0029029196
0.0026147445
0.0022039998
0.0012439258
0.00071595531
0.0091090008
0.0070539691
0.003929653
-0.00068153749
-0.0072406664
-0.016085415
-0.027366702
-0.041028868
-0.056655686
-0.071448656
-0.084110152
-0.095349326
-0.10469905
-0.11196018
-0.11694272
-0.11964361
-0.12009861
-0.11844545
-0.11490897
-0.10978087
-0.10339132
-0.096091587
-0.088229453
-0.080130838
-0.072083761
-0.064324719
-0.057028723
-0.050306304
-0.044218599
-0.038796861
-0.034053263
-0.029948468
-0.026404515
-0.023264798
-0.020684343
-0.018579422
-0.016915853
-0.015693339
-0.014757048
0.0094927047
0.010660892
0.011186746
0.011128543
0.010556758
0.0096503352
0.0085461534
0.0073494964
0.0061332222
0.0049791557
0.0039827756
0.0032712808
0.0029171038
0.0027362034
0.0024723555
0.0020561234
0.0011733261
0.00061975575
0.0076262428
0.0048549893
0.00076998755
-0.0051555991
-0.013372636
-0.024121191
-0.03738668
-0.052883956
-0.069909805
-0.085296662
-0.097639646
-0.10810145
-0.11634509
-0.12230446
-0.12586568
-0.12710419
-0.12611778
-0.1230965
-0.1183096
-0.11207873
-0.10475317
-0.096690635
-0.08823648
-0.079706966
-0.071373022
-0.063444738
-0.056065028
-0.049321039
-0.043269306
-0.037936681
-0.033295686
-0.02924527
-0.025606176
-0.022569169
-0.020056186
-0.01801676
-0.016398847
-0.015199296
-0.014279061
0.0079305578
0.0096842183
0.01077831
0.011212106
0.011026105
0.010340103
0.009342966
0.0081813226
0.0069610142
0.0057527495
0.0046312117
0.0036689626
0.0030255977
0.0027242987
0.002572906
0.0023234614
0.0019076174
0.0011004321
0.00053980463
0.005413838
0.0018065454
-0.0034626947
-0.010956822
-0.021048979
-0.033825088
-0.049057586
-0.066155706
-0.084152922
-0.099657876
-0.11128584
-0.12068319
-0.12760849
-0.13212357
-0.13416707
-0.13389509
-0.13145525
-0.12708556
-0.12109245
-0.1138196
-0.10562822
-0.096877397
-0.087907314
-0.079020527
-0.070462554
-0.062410116
-0.054981787
-0.048261908
-0.042303115
-0.037083103
-0.032496603
-0.028306772
-0.024795975
-0.021841218
-0.019418686
-0.017440094
-0.01586997
-0.014693874
-0.013791229
0.005618951
0.0079814894
0.0096832087
0.010709523
0.011033632
0.010729167
0.0099582004
0.0089151323
0.0077408131
0.006531825
0.0053596748
0.0042757566
0.0033671884
0.0027923555
0.0025390883
0.0024147613
0.0021670329
0.0017527673
0.001016404
0.0004694552
0.0023799538
-0.0022604658
-0.0089737835
-0.01827625
-0.030405227
-0.045242001
-0.062254212
-0.080555646
-0.099005104
-0.11418299
-0.12478255
-0.13288855
-0.13833807
-0.1412961
-0.14176428
-0.13995945
-0.13607786
-0.13039968
-0.12325852
-0.1150143
-0.1060338
-0.096675351
-0.087269454
-0.078094946
-0.069363457
-0.061227325
-0.053805392
-0.047179235
-0.041341557
-0.036172949
-0.031391504
-0.027358241
-0.023946019
-0.021106716
-0.018767267
-0.016851868
-0.015329495
-0.014178198
-0.013294068
0.0025016779
0.0054957352
0.0077932683
0.0094573173
0.010396194
0.010621401
0.010231612
0.0094278608
0.0083904477
0.0072431824
0.0060783801
0.0049576251
0.0039155617
0.0030782388
0.0025775827
0.0023649814
0.0022567226
0.0019977688
0.0015834048
0.00091454615
0.00039810539
-0.0016232182
-0.0075464193
-0.015959701
-0.027262336
-0.041494902
-0.058259387
-0.07669705
-0.095695358
-0.11409657
-0.12857906
-0.13790807
-0.14454964
-0.14840702
-0.14972931
-0.1485911
-0.14525704
-0.13996705
-0.13303587
-0.12481684
-0.1156795
-0.10599433
-0.09611433
-0.086348545
-0.076941906
-0.068082687
-0.059928231
-0.052596915
-0.046097927
-0.04030462
-0.034871913
-0.030277988
-0.026360729
-0.023093452
-0.020359066
-0.018105028
-0.016252392
-0.014778741
-0.013652851
-0.012788222
-0.0015461718
0.0021982464
0.0050687739
0.0073341726
0.008947409
0.0098137759
0.0099741195
0.0095571616
0.0087789549
0.0077891419
0.0067031856
0.0056194821
0.0045331414
0.0035665184
0.0028097269
0.0023834642
0.0021970679
0.0020855865
0.0018047086
0.0013939488
0.00079716945
0.00032268311
-0.0067837203
-0.014251183
-0.024569034
-0.037964217
-0.05422809
-0.072619113
-0.09199166
-0.11118058
-0.12910126
-0.1426166
-0.15048227
-0.15553287
-0.1577084
-0.15734904
-0.15460013
-0.14976323
-0.14311684
-0.13500094
-0.12578303
-0.11584022
-0.10554189
-0.095222165
-0.085156473
-0.075568467
-0.066658178
-0.058586344
-0.051384993
-0.044917977
-0.03877474
-0.033564326
-0.029104531
-0.025365951
-0.022228998
-0.019601875
-0.017432486
-0.015643027
-0.014218461
-0.013118821
-0.012274206
-0.0066952912
-0.0019965482
0.0015141995
0.0043149203
0.0065531338
0.0081358242
0.0089700849
0.0091219016
0.0087433147
0.0080342429
0.0071297403
0.0061688409
0.0051204487
0.0041168371
0.0032352213
0.0025662386
0.0022007568
0.0020206651
0.0018827149
0.0015858109
0.001188077
0.00066558958
0.00024455682
-0.013295313
-0.022508359
-0.034849705
-0.050318787
-0.06836887
-0.087926488
-0.10772292
-0.12668552
-0.14379954
-0.15610599
-0.16236457
-0.16572418
-0.16616047
-0.16410227
-0.15976135
-0.15346753
-0.14553045
-0.13630922
-0.12618267
-0.11553083
-0.10470651
-0.094010559
-0.083699966
-0.074019276
-0.065177856
-0.057234544
-0.050045866
-0.043123066
-0.037240311
-0.032183441
-0.02794093
-0.024360973
-0.021356965
-0.018835574
-0.016750999
-0.015024812
-0.013649744
-0.012576467
-0.011752885
-0.013121445
-0.0072436928
-0.0029180735
0.0004365477
0.0031999618
0.0054475437
0.0070394775
0.0079033643
0.0081095833
0.0078161651
0.0072142973
0.0064904172
0.0055770862
0.0046278467
0.0037147931
0.0029245389
0.0023371737
0.0020094337
0.0018162827
0.0016438021
0.0013431925
0.00096715834
0.00052328902
0.00016598145
-0.021276591
-0.032369375
-0.046751599
-0.064106145
-0.083530137
-0.10374934
-0.12356395
-0.14196022
-0.15798968
-0.16891268
-0.17343203
-0.17503234
-0.1737021
-0.16995454
-0.16405871
-0.15636954
-0.14722049
-0.13698653
-0.12605242
-0.11478357
-0.10349927
-0.092485211
-0.082030852
-0.072398821
-0.063679382
-0.055720808
-0.047946006
-0.041326031
-0.035616616
-0.030821605
-0.026769474
-0.023351065
-0.020477569
-0.018061691
-0.016061822
-0.014398677
-0.013072619
-0.012026947
-0.01122488
-0.020936382
-0.013691113
-0.0083592972
-0.0043100597
-0.0010462052
0.0017459789
0.0040476811
0.0057066365
0.0066652665
0.0069675203
0.0068001755
0.0064463193
0.0057887082
0.0049898093
0.0041424989
0.0033253957
0.0026206368
0.0020981218
0.0017894185
0.0015710581
0.0013705773
0.00107662
0.00073391394
0.00037578171
8.7425871e-05
-0.03077575
-0.043787401
-0.060068362
-0.078953542
-0.099277972
-0.11974662
-0.13923933
-0.15679829
-0.17152856
-0.18089093
-0.18358216
-0.1833852
-0.18028939
-0.17488059
-0.16748662
-0.15847955
-0.14821282
-0.13707192
-0.12542687
-0.11360842
-0.10192393
-0.090705633
-0.080272764
-0.070750337
-0.061977184
-0.053272734
-0.045846977
-0.039420438
-0.034023747
-0.029454912
-0.02559665
-0.022336079
-0.019592486
-0.01728158
-0.015365593
-0.013764124
-0.01248902
-0.011471142
-0.010690909
-0.030179528
-0.0214534
-0.01494263
-0.010031391
-0.0061593944
-0.0028778229
2.767582e-06
0.002414561
0.0042017619
0.0052875974
0.0057236098
0.0058859045
0.0056217693
0.0050925533
0.0044033152
0.0036586514
0.0029275207
0.0022989607
0.0018215491
0.0015197401
0.0012785067
0.0010625939
0.00078913025
0.00049341843
0.00022394433
9.3328399e-06
-0.041746327
-0.056575497
-0.074456192
-0.094440787
-0.11526681
-0.13565724
-0.15454589
-0.17105651
-0.18430156
-0.19195021
-0.19274002
-0.19073102
-0.18588381
-0.17886704
-0.17005208
-0.15982297
-0.14854934
-0.13660268
-0.12431466
-0.1120064
-0.10004816
-0.088817299
-0.07847551
-0.068848499
-0.059134408
-0.05082915
-0.043616213
-0.037560499
-0.032429866
-0.028091416
-0.024421753
-0.0213178
-0.018703104
-0.016495552
-0.014660942
-0.013123832
-0.011899953
-0.010910147
-0.010151637
-0.040810453
-0.030569209
-0.022782471
-0.016855706
-0.012224034
-0.0083683282
-0.0049850239
-0.0019542381
0.00062124313
0.0025646701
0.0037986786
0.0046491904
0.0049321965
0.0048054997
0.0043906218
0.0038072825
0.0031524363
0.0024958399
0.0019307717
0.001490326
0.0011873463
0.00094075934
0.00072617794
0.00048665544
0.00024786457
6.7991718e-05
-6.7571743e-05
-0.05402286
-0.070425594
-0.089528435
-0.11023326
-0.13124155
-0.1512809
-0.16933331
-0.18462717
-0.1961907
-0.20200634
-0.20085023
-0.19703341
-0.19046519
-0.18191792
-0.17177927
-0.16044432
-0.14827055
-0.13558588
-0.12271288
-0.11005349
-0.09804235
-0.086877979
-0.076366705
-0.065561975
-0.056300585
-0.048225911
-0.04144959
-0.035704264
-0.030844973
-0.026729619
-0.023246598
-0.02029758
-0.017809378
-0.015701126
-0.013951811
-0.012478931
-0.011306741
-0.010344864
-0.0096077394
-0.05268753
-0.041006494
-0.03191956
-0.024899796
-0.019363169
-0.014794117
-0.010837793
-0.0072753907
-0.0040431618
-0.0012864527
0.00082609707
0.0025670823
0.0035758459
0.003994817
0.0039779934
0.0036674117
0.0031755178
0.0025934798
0.0020083567
0.0014999995
0.0010938813
0.00079615514
0.0005628805
0.0003676785
0.0001733611
-2.185458e-06
-9.0095839e-05
-0.00014296994
-0.067341188
-0.084992971
-0.10497367
-0.12608502
-0.14700596
-0.16645808
-0.18349046
-0.1974007
-0.20710112
-0.21099512
-0.20787151
-0.20226299
-0.19403679
-0.18405776