/*--------------------------------*- C++ -*----------------------------------*\
  =========                 |
  \\      /  F ield         | OpenFOAM: The Open Source CFD Toolbox
   \\    /   O peration     | Website:  https://openfoam.org
    \\  /    A nd           | Version:  8
     \\/     M anipulation  |
\*---------------------------------------------------------------------------*/
FoamFile
{
    version     2.0;
    format      ascii;
    class       volScalarField;
    location    "100.9663773";
    object      pPrime2Mean;
}
// * * * * * * * * * * * * * * * * * * * * * * * * * * * * * * * * * * * * * //

dimensions      [0 4 -4 0 0 0 0];

internalField   nonuniform List<scalar> 
9200
(
5.7525453e-07
5.4798636e-07
4.3469754e-06
4.9675341e-07
4.0880151e-06
1.2138611e-05
4.3950988e-07
3.6364685e-06
1.1417636e-05
2.3905486e-05
3.7701033e-07
3.1055451e-06
1.0166799e-05
2.247402e-05
4.0472793e-05
3.2275959e-07
2.5464287e-06
8.6876446e-06
1.999566e-05
3.8050864e-05
6.2414248e-05
2.774054e-07
2.0385315e-06
7.1386024e-06
1.7050756e-05
3.38569e-05
5.8675178e-05
9.0796403e-05
2.4657946e-07
1.6089383e-06
5.7243228e-06
1.3974797e-05
2.8859945e-05
5.2198354e-05
8.5355936e-05
0.0001267251
2.3145275e-07
1.2877553e-06
4.5331198e-06
1.1159717e-05
2.3644481e-05
4.4461378e-05
7.5927038e-05
0.00011913223
0.00017159768
2.3447974e-07
1.0825553e-06
3.6457218e-06
8.795668e-06
1.8857461e-05
3.6385739e-05
6.4634282e-05
0.0001059665
0.00016132684
0.0002269511
2.5832292e-07
9.9494652e-07
3.0885232e-06
7.0352795e-06
1.4833611e-05
2.8952369e-05
5.2839582e-05
9.0155657e-05
0.00014350844
0.00021339601
0.0002945447
3.0760483e-07
1.0182535e-06
2.8686229e-06
5.9323074e-06
1.1827921e-05
2.2688254e-05
4.1948765e-05
7.3623685e-05
0.00012204815
0.00018986708
0.00027701718
0.00037627178
3.9051408e-07
1.1436611e-06
2.9742686e-06
5.5005209e-06
9.9290562e-06
1.7982687e-05
3.2745176e-05
5.8308864e-05
9.9574845e-05
0.00016144067
0.00024657286
0.00035400057
0.0004742007
5.2091929e-07
1.3635273e-06
3.389881e-06
5.7168204e-06
9.1568416e-06
1.4976098e-05
2.5784044e-05
4.532741e-05
7.8684876e-05
0.00013161467
0.00020966736
0.00031528631
0.000446339
0.00059048917
7.2040987e-07
1.6734544e-06
4.1047177e-06
6.5455493e-06
9.4714571e-06
1.3683712e-05
2.1277074e-05
3.5448973e-05
6.0920925e-05
0.00010378854
0.00017085226
0.00026818381
0.00039786081
0.00055612145
0.00072740106
1.020898e-06
2.075077e-06
5.1175325e-06
7.95521e-06
1.080939e-05
1.403005e-05
1.9237635e-05
2.8971111e-05
4.733373e-05
8.0045417e-05
0.00013449587
0.00021850201
0.00033864552
0.00049625567
0.00068555946
0.00088721826
1.4619087e-06
2.5854949e-06
6.4434923e-06
9.9315207e-06
1.311459e-05
1.590081e-05
1.953631e-05
2.5908413e-05
3.8336325e-05
6.1796122e-05
0.0001033576
0.00017176297
0.00027597643
0.00042281887
0.00061257855
0.00083689903
0.00107223
2.0844483e-06
3.2366819e-06
8.1233172e-06
1.2491072e-05
1.6351849e-05
1.9177464e-05
2.1980408e-05
2.6061277e-05
3.3948537e-05
4.9617882e-05
7.9309221e-05
0.00013156132
0.00021673104
0.0003447943
0.00052264725
0.00074899869
0.0010124202
0.0012846563
2.9324404e-06
4.1071024e-06
1.0219875e-05
1.5687291e-05
2.0524732e-05
2.3779044e-05
2.6363183e-05
2.9126553e-05
3.3888133e-05
4.3546366e-05
6.3157076e-05
0.00010035359
0.00016552162
0.00027063039
0.00042667468
0.00064016215
0.00090776198
0.0012143564
0.0015266068
4.0174431e-06
5.3417682e-06
1.2876269e-05
1.9597945e-05
2.5681071e-05
2.9665437e-05
3.2509075e-05
3.47705e-05
3.7711359e-05
4.32094e-05
5.4982437e-05
7.9259527e-05
0.00012553796
0.00020616095
0.00033490016
0.00052343969
0.0007775213
0.0010911081
0.0014448637
0.001800026
5.2290212e-06
7.2288781e-06
1.6290621e-05
2.4417739e-05
3.1898968e-05
3.6862754e-05
4.0303904e-05
4.2689656e-05
4.4919059e-05
4.7995107e-05
5.4316483e-05
6.8456151e-05
9.8323918e-05
0.00015548511
0.00025459983
0.00041108204
0.00063708732
0.00093692584
0.0013012556
0.0017059624
0.0021066406
6.3658393e-06
1.0212507e-05
2.0699175e-05
3.043401e-05
3.9370575e-05
4.5464991e-05
4.9710139e-05
5.2652153e-05
5.5035472e-05
5.7195693e-05
6.0355892e-05
6.7381986e-05
8.422283e-05
0.00012071096
0.00019098545
0.00031204322
0.00050093384
0.00076970417
0.0011206269
0.0015403349
0.0019994852
0.0024479191
7.2917231e-06
1.4772902e-05
2.6664432e-05
3.7933283e-05
4.8434037e-05
5.562729e-05
6.0786204e-05
6.4521558e-05
6.766374e-05
7.0117252e-05
7.2142057e-05
7.502393e-05
8.260859e-05
0.00010243961
0.00014690134
0.00023287507
0.00037992892
0.00060632863
0.00092350039
0.0013308495
0.0018103466
0.0023270326
0.0028250289
8.0802402e-06
2.1003346e-05
3.4887533e-05
4.7543622e-05
5.9407232e-05
6.7675992e-05
7.3657023e-05
7.82775e-05
8.2524222e-05
8.6155387e-05
8.8712895e-05
9.0132191e-05
9.2242285e-05
0.00010004202
0.00012333541
0.0001773648
0.00028221089
0.00045981623
0.00072933408
0.0011007308
0.0015697705
0.0021131117
0.002689925
0.0032388007
8.804326e-06
2.833389e-05
4.5458848e-05
5.9951009e-05
7.2825859e-05
8.200144e-05
8.8605998e-05
9.3994752e-05
9.9480003e-05
0.00010484872
0.00010920589
0.00011141707
0.00011154477
0.00011205036
0.00011973964
0.00014705521
0.00021274936
0.0003401543
0.00055351462
0.00087212576
0.0013036966
0.0018394566
0.0024502214
0.0030891715
0.003689699
9.4434225e-06
3.5800359e-05
5.7587359e-05
7.5233904e-05
8.9243851e-05
9.9100585e-05
0.00010602405
0.000111897
0.00011853456
0.000125906
0.00013293068
0.00013769402
0.00013883383
0.00013652334
0.00013445206
0.0001415908
0.00017385329
0.00025376483
0.00040813821
0.00066298019
0.0010370219
0.0015346713
0.00214182
0.002822997
0.0035254461
0.0041778133
9.9339783e-06
4.260903e-05
7.028506e-05
9.2417175e-05
0.00010914622
0.00011965817
0.00012644548
0.00013232764
0.00013987546
0.00014921925
0.00015941199
0.00016798119
0.00017252297
0.00017132564
0.00016514429
0.00015919775
0.00016551999
0.00020397464
0.00030137223
0.00048775807
0.00079040447
0.0012264043
0.0017958735
0.0024785682
0.0032324494
0.0039990647
0.0047028838
1.0252755e-05
4.8364074e-05
8.2382021e-05
0.00011003224
0.0001317973
0.0001439844
0.00015067755
0.00015583356
0.0001637587
0.00017492167
0.00018840926
0.00020156717
0.00021125393
0.00021438048
0.00020917775
0.00019715758
0.00018597327
0.00019134592
0.00023785588
0.00035668334
0.00058091227
0.00093812357
0.0014427144
0.0020894011
0.0028511559
0.0036792502
0.0045099475
0.005264271
1.0393412e-05
5.2868015e-05
9.2923587e-05
0.00012644891
0.00015505698
0.00017154402
0.00017891836
0.00018316865
0.00019070573
0.00020320973
0.00021996684
0.00023804955
0.00025399424
0.00026385154
0.00026390089
0.00025228802
0.00023216671
0.00021424001
0.00021898633
0.0002760364
0.00042113403
0.00068970227
0.001108655
0.0016883753
0.0024171862
0.0032607459
0.0041637249
0.0050576632
0.0058609785
1.0361851e-05
5.6212526e-05
0.00010136193
0.00014055496
0.00017697463
0.00020018177
0.00021089156
0.00021474969
0.00022156224
0.00023461035
0.00025427299
0.00027736065
0.00030008524
0.00031826563
0.00032689135
0.00032129493
0.00030034075
0.00026940294
0.00024347015
0.00024836641
0.0003193507
0.00049639835
0.00081652556
0.0013046097
0.0019657607
0.0027809394
0.0037081749
0.0046858261
0.0056414203
0.0064916874
1.0074156e-05
5.8602977e-05
0.00010753111
0.00015179407
0.00019595901
0.00022756998
0.00024478982
0.00025071781
0.00025701429
0.00027004727
0.00029189792
0.00031971644
0.00034929009
0.00037659756
0.00039612177
0.00040106781
0.00038650167
0.00035251865
0.00030797333
0.00027300693
0.00027963779
0.00036886845
0.00058452298
0.00096397704
0.0015286871
0.0022771185
0.0031821017
0.0041939247
0.0052451334
0.0062600833
0.0071547819
9.6875244e-06
5.9529381e-05
0.00011159638
0.00016005732
0.00021111013
0.00025161042
0.00027797167
0.00028995009
0.00029708655
0.0003103241
0.00033381509
0.0003658225
0.00040176587
0.00043830815
0.00047007057
0.00048890987
0.00048676324
0.00045883601
0.00040773405
0.00034673442
0.0003022994
0.00031312685
0.00042605634
0.00068784341
0.0011348894
0.0017835813
0.0026245234
0.0036218041
0.0047181091
0.0058408661
0.0069122
0.0078483775
9.2112305e-06
5.9527394e-05
0.00011257119
0.00016569492
0.0002222637
0.00027105968
0.00030777087
0.00032901045
0.00034123682
0.00035554042
0.00038096334
0.00041687015
0.00045829882
0.0005033136
0.00054776438
0.00058268487
0.0005976455
0.00058361606
0.00053722187
0.00046447465
0.00038450777
0.00033086098
0.00034952958
0.0004927301
0.00080906494
0.0013322266
0.0020719475
0.0030098078
0.0041008267
0.0052804644
0.0064718979
0.0075960324
0.0085703632
8.6351117e-06
5.8273182e-05
0.00011186292
0.00016688754
0.00022982675
0.00028566826
0.00033249086
0.00036493385
0.00038638591
0.00040548093
0.00043386314
0.00047408875
0.00052030044
0.00057232857
0.00062875457
0.00068088029
0.00071628058
0.00072248076
0.0006907612
0.00061999129
0.00052104465
0.00042000638
0.00035848659
0.00038989341
0.0005711673
0.00095116862
0.0015590798
0.0023963077
0.0034345159
0.004619575
0.005880351
0.0071367788
0.0083095917
0.0093184412
7.9722395e-06
5.5773379e-05
0.00010883885
0.00016622862
0.00023096709
0.0002959458
0.00035163058
0.00039553264
0.00042904282
0.00045794385
0.00049300564
0.00053893958
0.00058936843
0.00064681806
0.00071346129
0.00078259281
0.00084049959
0.00087169797
0.00086297058
0.0008065979
0.00070510154
0.00057547467
0.00045207598
0.0003852583
0.00043576823
0.00066405236
0.0011174361
0.0018185508
0.0027590002
0.0038998486
0.0051780632
0.0065167655
0.0078337658
0.009050676
0.010090169
7.2591561e-06
5.2111074e-05
0.00010368848
0.0001624867
0.00022995107
0.00029790779
0.00036575824
0.00042001467
0.00046639647
0.00050924219
0.00055731315
0.00061206419
0.00066739713
0.00072842698
0.00080326063
0.00088779253
0.00096884644
0.0010283084
0.0010490927
0.0010177919
0.00092900751
0.00079003336
0.00062572367
0.00047971907
0.00041173468
0.00048919466
0.00077452915
0.0013113391
0.002113712
0.0031620926
0.0044066278
0.0057759067
0.0071883604
0.0085608584
0.0098169107
0.010882998
6.5616761e-06
4.7450578e-05
9.6699844e-05
0.00015597903
0.00022481886
0.00029752577
0.00036959103
0.00043894192
0.0004972204
0.00055591469
0.00062271821
0.00069359285
0.0007559601
0.00081939042
0.00089968091
0.00099766464
0.0011007506
0.0011901929
0.0012452372
0.0012476596
0.0011850142
0.0010551516
0.00087203252
0.00066969906
0.00050231103
0.00043897892
0.0005527993
0.00090612628
0.0015365136
0.0024474913
0.003607334
0.0049552625
0.0064123263
0.0078934711
0.0093158364
0.01060579
0.011694314
5.9671761e-06
4.2095324e-05
8.8173277e-05
0.00014719798
0.00021613414
0.0002919853
0.00037098675
0.00044564391
0.00052209189
0.00059610892
0.00068461221
0.00077878487
0.00085540699
0.00092201792
0.0010047958
0.0011136023
0.0012371243
0.0013561399
0.0014484748
0.001491176
0.0014658965
0.0013618033
0.0011817344
0.00094802411
0.00070550694
0.00051966485
0.00046870634
0.00062976382
0.0010627453
0.0017966273
0.0028226136
0.0040960829
0.0055457352
0.0070861625
0.0086301496
0.010096301
0.011414719
0.012521472
5.5095504e-06
3.6447828e-05
7.8478611e-05
0.00013665887
0.00020469635
0.00028202327
0.0003660878
0.00044990742
0.0005328393
0.00063013655
0.00073957895
0.00086084126
0.00096051032
0.0010373153
0.0011211872
0.0012372396
0.0013792423
0.0015266346
0.0016568116
0.0017444231
0.0017653214
0.0017012784
0.0015446278
0.0013049264
0.0010148823
0.00073153287
0.00053222594
0.00050330411
0.00072385192
0.0012485481
0.0020953224
0.0032414912
0.0046292754
0.0061775928
0.0077958993
0.0093962021
0.010899717
0.012241051
0.013361834
5.2087543e-06
3.0975746e-05
6.8140047e-05
0.00012489946
0.00019130277
0.00026871451
0.00035576994
0.00044693999
0.00054071668
0.00064714808
0.00078736438
0.00093449198
0.0010634952
0.0011607268
0.0012505536
0.001371465
0.0015283248
0.0017028438
0.0018700765
0.0020044187
0.0020781434
0.0020657571
0.001950431
0.001729131
0.0014205506
0.001069515
0.00074668325
0.00054114723
0.00054591566
0.00083933822
0.0014678975
0.0024360784
0.0037061697
0.0052073791
0.0068499542
0.0085396942
0.010189231
0.011723452
0.013082122
0.014212798
2.6153555e-05
5.181069e-06
5.790379e-05
0.00011252158
0.00017673735
0.00025316225
0.00034135636
0.00043761674
0.0005406732
0.00066001013
0.00081203006
0.00099932634
0.001157309
0.0012833329
0.0013906282
0.0015183763
0.0016871082
0.0018856293
0.0020892835
0.0022702237
0.0024002219
0.0024486386
0.0023896152
0.0022088473
0.0019103635
0.0015241353
0.001109146
0.00075050211
0.00054843728
0.00060042304
0.00098096042
0.0017252227
0.0028221312
0.0042182439
0.0058303835
0.0075615251
0.0093154163
0.011006678
0.012564817
0.01393529
0.015071822
4.8537816e-05
2.2292e-05
5.4648426e-06
0.00010036852
0.00016178487
0.00023657597
0.00032415409
0.00042342327
0.00053358597
0.00066390745
0.00083083877
0.0010332778
0.0012409884
0.0013961894
0.0015321694
0.0016776614
0.0018579846
0.0020769744
0.0023150198
0.0025425368
0.0027296542
0.0028444209
0.0028538964
0.0027326748
0.002471083
0.0020827264
0.0016112219
0.0011314578
0.00074338585
0.0005570105
0.00067144369
0.0011538034
0.0020249083
0.0032563545
0.0047788162
0.0064977852
0.0083106274
0.010120687
0.011845863
0.013421102
0.014797958
0.015936449
8.9275059e-05
4.0690871e-05
1.9574146e-05
5.9735744e-06
0.00014750797
0.00022007227
0.00030563784
0.00040578886
0.000520975
0.00065958634
0.0008385926
0.0010601178
0.0012858296
0.0014975137
0.001664608
0.0018410711
0.0020416013
0.0022794339
0.0025486564
0.0028215826
0.0030665631
0.0032499689
0.0033362236
0.0032903867
0.0030894473
0.0027307443
0.0022402469
0.0016775374
0.0011348579
0.00072670372
0.00057075905
0.00076425875
0.0013631965
0.0023711546
0.0037411803
0.0053884493
0.0072086032
0.0090952326
0.010952926
0.012704034
0.014289613
0.015667595
0.016804329
0.00013509343
7.986323e-05
3.4894995e-05
1.8083343e-05
6.551728e-06
0.00020488587
0.00028721324
0.00038646036
0.00050426002
0.00064863311
0.00083619607
0.0010723174
0.0013230782
0.0015535264
0.0017854761
0.0019965965
0.0022314061
0.0024945486
0.0027925
0.0031082828
0.0034107014
0.0036645487
0.0038318842
0.0038731818
0.0037530747
0.0034530798
0.0029806889
0.002376774
0.0017192867
0.001118668
0.00070294911
0.00059453066
0.00088473291
0.0016145525
0.0027678569
0.0042785081
0.0060471508
0.0079613943
0.0099130055
0.011809394
0.013578397
0.015167697
0.016541764
0.017673224
0.00019239196
0.0001253597
7.2642605e-05
3.1353393e-05
1.7802647e-05
7.0449602e-06
0.00027037009
0.00036713009
0.00048525675
0.00063248203
0.00082545242
0.0010708908
0.0013417927
0.0016007731
0.0018540849
0.0021403049
0.0024145216
0.0027175391
0.0030481809
0.0034048403
0.0037626212
0.0040873827
0.0043390512
0.0044744234
0.0044511213
0.0042351506
0.0038156512
0.0032131422
0.0024862966
0.0017333927
0.0010833485
0.00067581331
0.00063411671
0.0010391705
0.0019132234
0.0032184731
0.0048696506
0.0067543625
0.008754289
0.01076135
0.012687245
0.014466161
0.016052774
0.017418138
0.018541029
0.0002568235
0.00018348155
0.00011882048
6.7829904e-05
3.0031767e-05
1.8590127e-05
7.4166624e-06
0.00034935405
0.00046578274
0.0006130712
0.00080766753
0.0010580285
0.0013430326
0.001627403
0.0019105804
0.0022214749
0.0025858757
0.0029347824
0.0033129393
0.0037125859
0.0041243162
0.0045185262
0.0048563221
0.0050909413
0.005174755
0.0050637644
0.0047282749
0.0041681993
0.0034200579
0.0025631952
0.0017177754
0.0010306741
0.00065024038
0.00069616326
0.0012341681
0.0022643296
0.0037259181
0.0055152837
0.0075089768
0.0095850309
0.011637461
0.013583562
0.015364566
0.016942357
0.018294515
0.019405778
0.00033511197
0.00024780971
0.00017860433
0.00011560793
6.5422429e-05
3.0658294e-05
2.0005705e-05
7.6212231e-06
0.00044749719
0.00059247425
0.00078484571
0.0010352009
0.0013292347
0.0016340083
0.0019457079
0.0022857587
0.0026816353
0.0031401811
0.0035730232
0.0040296271
0.0044970362
0.0049595879
0.0053830756
0.0057205452
0.005919104
0.0059276126
0.0057028598
0.0052227531
0.004501012
0.0035933754
0.0026025596
0.0016716096
0.00096387032
0.00063242553
0.00078803458
0.0014764188
0.0026726025
0.004292463
0.0062154266
0.0083093598
0.010451028
0.012538372
0.014495407
0.016270916
0.017834072
0.019168829
0.020265647
0.00043251201
0.0003258562
0.00024376152
0.00017783554
0.00011548894
6.5136447e-05
3.2633528e-05
2.1509777e-05
7.5847056e-06
0.00057251562
0.00075950557
0.0010049033
0.0013019785
0.0016228993
0.001959749
0.0023279991
0.0027522136
0.0032533796
0.0038223592
0.0043432951
0.0048796375
0.0054121867
0.0059204053
0.0063617683
0.0066810611
0.0068197103
0.0067253702
0.0063583561
0.0057077489
0.004803917
0.003725331
0.0026004809
0.0015955722
0.00088774416
0.00062976504
0.00091764851
0.0017725197
0.0031422264
0.0049196651
0.0069694364
0.0091533932
0.011349406
0.013461009
0.015419854
0.017182604
0.018725669
0.020039152
0.021118957
0.00055549183
0.00042262334
0.00032211325
0.00024466027
0.00018069436
0.00011784998
6.632847e-05
3.5195822e-05
2.2704323e-05
7.3189815e-06
0.00073393571
0.00097057689
0.0012642243
0.0015953702
0.0019548084
0.0023486787
0.0027998017
0.0033307082
0.003957548
0.0046478553
0.005259608
0.0058756956
0.006470304
0.0070149484
0.0074581388
0.0077357466
0.00778612
0.0075580621
0.0070188382
0.006171509
0.005066568
0.0038087457
0.0025543856
0.0014920588
0.00080872627
0.00065073651
0.0010932656
0.0021287605
0.0036767037
0.0056083147
0.0077760273
0.010038525
0.012277069
0.014402241
0.016354026
0.018097128
0.019615035
0.020903706
0.021964178
0.00071108559
0.00054359744
0.00041861688
0.00032377723
0.00024979352
0.00018612012
0.00012168813
6.8187659e-05
3.7639862e-05
2.3342157e-05
6.883464e-06
0.00093547661
0.0012203888
0.0015545196
0.0019314623
0.0023500976
0.0028251583
0.0033829281
0.004043262
0.0048129704
0.0056332123
0.0063368678
0.00703257
0.007682449
0.0082497097
0.0086721465
0.00887917
0.0088089061
0.0084140621
0.0076716739
0.0066016532
0.0052786772
0.0038373746
0.0024633326
0.0013653885
0.0007348714
0.00070472297
0.0013232437
0.0025509179
0.0042787395
0.0063584145
0.0086333057
0.010961829
0.013230751
0.015358916
0.017295123
0.019012115
0.020500206
0.021760862
0.02279992
0.00090349585
0.00069394444
0.00053804979
0.00042032081
0.00032982858
0.00025768129
0.00019267454
0.00012584202
6.9979116e-05
3.9414682e-05
2.3348797e-05
6.3676803e-06
0.00117505
0.0015054763
0.0018923145
0.0023322966
0.002831372
0.0034114006
0.0041004882
0.0049111745
0.0058373381
0.0067944481
0.0075927063
0.0083642525
0.0090584165
0.0096271409
0.0099997487
0.010102607
0.0098766901
0.0092805199
0.0083032402
0.0069853084
0.0054303146
0.0038062779
0.0023283745
0.0012219503
0.00067577595
0.00080178697
0.0016157779
0.0030440647
0.0049501576
0.0071691813
0.0095388209
0.011920069
0.014207078
0.016327909
0.018240448
0.019925336
0.02137937
0.022609132
0.023664896
0.0011334984
0.00087857854
0.00068452331
0.00053869332
0.00042654527
0.000338488
0.0002664478
0.00019888271
0.00012928087
7.1063211e-05
4.0190321e-05
2.2870141e-05
5.7574008e-06
0.0014538851
0.0018424639
0.0022971592
0.0028185273
0.0034204884
0.0041312618
0.0049762764
0.0059531719
0.0070485833
0.0081522145
0.0090440634
0.0098844391
0.010603535
0.011145017
0.011432818
0.011395214
0.010976931
0.010143482
0.0088989261
0.0073092758
0.0055122387
0.0037122309
0.0021528472
0.0010702661
0.00064241619
0.00095237889
0.0019786343
0.0036124043
0.0056918473
0.0080390707
0.010489625
0.012909758
0.015202614
0.017306161
0.01918744
0.020834716
0.022250851
0.023483326
0.024578148
0.0014061686
0.0011008263
0.00086355059
0.00068289045
0.00054444364
0.00043532938
0.00034760335
0.00027428818
0.00020348324
0.00013110741
7.1031615e-05
4.0022198e-05
2.1757872e-05
5.1255852e-06
0.0017881089
0.0022493229
0.0027880628
0.003410991
0.0041417154
0.0050103396
0.0060315001
0.0071898384
0.0084678039
0.0097262494
0.010708948
0.011601648
0.012317452
0.012795632
0.012960907
0.0127452
0.012096296
0.010987705
0.009443125
0.0075602324
0.0055163283
0.0035541973
0.0019426513
0.00092098806
0.00064690192
0.0011670212
0.0024188926
0.0042591384
0.0065037378
0.0089658189
0.011482342
0.013927236
0.016213932
0.018290725
0.020133682
0.0217383
0.023147559
0.024403124
0.025514985
0.0017370264
0.0013683623
0.001080571
0.00085891501
0.00068789174
0.00055324372
0.00044431881
0.00035517789
0.00027969404
0.00020532088
0.00013075282
6.9951267e-05
3.8539186e-05
2.0265574e-05
4.5320095e-06
0.0021954656
0.0027442782
0.0033846686
0.0041337377
0.0050217553
0.0060725324
0.0072876503
0.0086412397
0.010117903
0.011539465
0.01259977
0.013517832
0.014192209
0.014568309
0.014573277
0.014140642
0.013220215
0.011796398
0.009919198
0.0077250871
0.0054361518
0.0033338174
0.0017064569
0.00078676857
0.00070216082
0.0014559687
0.0029427113
0.0049863593
0.0073847985
0.009946507
0.012513251
0.014968749
0.017237665
0.019278762
0.021076855
0.022668997
0.024089595
0.025350256
0.026475071
0.0021443644
0.0016961095
0.0013449002
0.0010736444
0.0008632642
0.00069708384
0.00056245087
0.00045138931
0.00035961703
0.00028128627
0.00020357346
0.00012880776
6.6883766e-05
3.6238796e-05
1.8367546e-05
4.0346548e-06
0.0026938882
0.0033462406
0.0041101283
0.0050138037
0.0060867914
0.0073406558
0.0087654217
0.010332393
0.012023623
0.013609409
0.014721261
0.015624405
0.016215601
0.016453232
0.016260012
0.01556905
0.01433221
0.012550894
0.010309626
0.0077914821
0.005267584
0.0030558437
0.001455793
0.00068203157
0.00082155997
0.0018288681
0.0035551104
0.0057949793
0.0083330801
0.010977656
0.013578397
0.016030512
0.018270495
0.020267512
0.022051768
0.023647008
0.025062911
0.026324275
0.027457982
0.002646613
0.0021026878
0.0016706676
0.0013371955
0.0010782653
0.00087329694
0.00070721289
0.00056964815
0.00045484968
0.0003594371
0.00027812856
0.00020008414
0.00012292459
6.2716254e-05
3.3175276e-05
1.6028604e-05
3.6826838e-06
0.0033031124
0.0040771093
0.0049908894
0.006079
0.0073616117
0.0088369581
0.010490046
0.012290033
0.01420749
0.015943512
0.017063507
0.017905727
0.018378417
0.01844296
0.01801208
0.017016089
0.01541325
0.013230444
0.010596308
0.0077484885
0.0050095205
0.0027285487
0.0012050125
0.00062263674
0.0010184779
0.0022944064
0.0042597906
0.0066847188
0.0093458066
0.012055344
0.014673652
0.017108704
0.019309145
0.021295707
0.023078338
0.024660574
0.026066997
0.027324569
0.028463219
0.0032659169
0.0026088138
0.0020767433
0.0016627212
0.0013429287
0.0010899003
0.00088487434
0.00071530123
0.00057289265
0.00045303084
0.0003536231
0.00027316162
0.00019043555
0.00011505485
5.7373245e-05
2.9573241e-05
1.3314061e-05
3.464439e-06
0.0040436475
0.0049616969
0.0060553609
0.0073562396
0.0088702658
0.010586938
0.012491411
0.014543696
0.016680827
0.018528895
0.019605473
0.020352017
0.020676892
0.020532866
0.019819036
0.018464348
0.016441167
0.01381225
0.010761211
0.007587489
0.0046645915
0.0023640045
0.0009711301
0.00062543526
0.0013058216
0.0028599839
0.005059031
0.007654171
0.01041949
0.013175268
0.015794705
0.018199473
0.020398494
0.022382518
0.024145194
0.025709165
0.027101097
0.028350403
0.029490196
0.0040229225
0.0032397983
0.0025861452
0.0020689043
0.0016693288
0.0013562552
0.0011032515
0.00089423799
0.00071897485
0.0005701366
0.00044466332
0.00034580987
0.00025986311
0.00017800699
0.00010501724
5.1156892e-05
2.5773399e-05
1.0572502e-05
3.2825639e-06
0.0049381087
0.0060275331
0.0073324311
0.0088717953
0.010639353
0.012622998
0.014805562
0.01711163
0.019428478
0.021336262
0.022335721
0.022963817
0.023111742
0.022717739
0.021667132
0.01989245
0.017390209
0.014271778
0.010787202
0.0073031645
0.0042398475
0.0019782265
0.00077347785
0.00070769432
0.0016955307
0.0035314788
0.0059536907
0.0087008905
0.01154997
0.014332736
0.016937118
0.019356356
0.021556449
0.023514962
0.025251831
0.026791921
0.028164297
0.029400898
0.030538252
0.0049371204
0.0040186433
0.0032284712
0.0025816421
0.0020758402
0.0016835073
0.001370729
0.0011137006
0.00089850243
0.00071567446
0.00055971382
0.00043392658
0.00032780311
0.00024271512
0.00016251245
9.3204129e-05
4.4568419e-05
2.206516e-05
8.1630926e-06
3.0212816e-06
0.0060105454
0.0073045805
0.008851092
0.010654233
0.012703412
0.014985535
0.017456074
0.019978006
0.022414597
0.024351153
0.025258968
0.025748455
0.025685159
0.024989558
0.023538216
0.021274113
0.018230876
0.01458337
0.010659213
0.0068946059
0.0037473735
0.0015911048
0.00063313822
0.00088644579
0.002198171
0.0043131397
0.006943231
0.0098213807
0.012732403
0.015522777
0.018165891
0.020595431
0.022766202
0.024692606
0.02639733
0.027907799
0.029255486
0.030475047
0.031606648
0.0060263085
0.0049604257
0.0040307165
0.0032345983
0.0025909368
0.00208964
0.0016978023
0.0013810252
0.0011178201
0.00089446738
0.00070320794
0.00054636482
0.00041035793
0.00030548328
0.0002213401
0.00014443245
8.0498881e-05
3.8165423e-05
1.8631777e-05
6.3040955e-06
2.6160612e-06
0.0072911475
0.0088244956
0.010641799
0.01273961
0.015103881
0.01770153
0.020428652
0.023097821
0.025620245
0.027583105
0.02839093
0.028716052
0.028397245
0.027336131
0.025408309
0.02257742
0.01893015
0.014721317
0.010365666
0.0063664752
0.0032046828
0.0012260169
0.00057220142
0.0011778946
0.002822672
0.0052074863
0.0080256066
0.011011067
0.013961451
0.016824958
0.019494732
0.02189355
0.02402744
0.025914524
0.027580572
0.029055518
0.030373386
0.031571713
0.032694572
0.0073192322
0.0060760619
0.0050044549
0.0040599366
0.0032516812
0.002604939
0.0021020908
0.001706398
0.0013834133
0.0011118602
0.00087974997
0.00068678638
0.00051632249
0.00038166649
0.00027837394
0.00019653791
0.00012491988
6.8068747e-05
3.2468699e-05
1.5589627e-05
4.9261555e-06
2.1179831e-06
0.0088127916
0.010619537
0.012740969
0.015167733
0.017870891
0.020760866
0.023671658
0.026440356
0.029055861
0.031058722
0.031751055
0.031876202
0.031243818
0.029738873
0.02724643
0.023764398
0.019452168
0.014661426
0.0099001574
0.005730036
0.0026347292
0.0009091426
0.00061303404
0.0015969692
0.003576039
0.0062150329
0.0091971884
0.01226458
0.015334559
0.018250207
0.020891311
0.023250579
0.025339289
0.027179575
0.02880016
0.03023358
0.031516536
0.032689639
0.033801129
0.0088491044
0.007388795
0.0061508463
0.0050660027
0.0040952443
0.0032694989
0.0026148554
0.0021072495
0.0017054934
0.0013737472
0.0010929976
0.00085875226
0.00064912729
0.00048030495
0.00034758241
0.00024752919
0.00017006581
0.00010555908
5.7048285e-05
2.7539115e-05
1.294834e-05
3.8917331e-06
1.6362922e-06
0.010608957
0.012724507
0.015185865
0.017970669
0.020998517
0.024108703
0.027142154
0.030014082
0.032758766
0.034808902
0.035360232
0.035235252
0.034214518
0.032171604
0.02901327
0.024790917
0.019759525
0.014383085
0.009263253
0.0050038342
0.0020655202
0.0006687144
0.00077765568
0.0021567778
0.0044628103
0.0073341063
0.010453161
0.013700566
0.016859785
0.019753843
0.022355739
0.024665754
0.026700648
0.028486301
0.030054439
0.031440273
0.032683316
0.033827498
0.034925525
0.010648998
0.0089321471
0.007486041
0.0062427596
0.0051271399
0.0041241479
0.0032789731
0.0026149523
0.0021014381
0.0016906778
0.0013494222
0.0010657861
0.00081140966
0.0006043142
0.0004381058
0.00030972961
0.00021517211
0.00014416163
8.7973353e-05
4.7696381e-05
2.3229221e-05
1.0693921e-05
3.1157919e-06
1.234612e-06
0.012711498
0.015173217
0.018006443
0.02114429
0.024431093
0.02769186
0.030844831
0.033857428
0.036768496
0.0388683
0.039236227
0.038794153
0.037290826
0.034598249
0.030659975
0.025607515
0.019815406
0.013871687
0.0084639865
0.0042138845
0.0015295835
0.00053431833
0.0010868946
0.0028676801
0.0054846843
0.0085613656
0.01193635
0.015324752
0.018476711
0.021336284
0.023887425
0.026138088
0.028110061
0.029832949
0.031341499
0.032673677
0.033872052
0.034984059
0.036066748
0.012747922
0.010736839
0.009042715
0.0075973076
0.0063259233
0.0051716832
0.0041365591
0.0032748833
0.0026021652
0.002080065
0.0016595204
0.0013135112
0.0010060273
0.00075578473
0.0005524372
0.00039199703
0.00027101207
0.00018410541
0.00012069959
7.3078648e-05
3.9800694e-05
1.952746e-05
8.8256247e-06
2.523197e-06
9.1547529e-07
0.015149683
0.017991013
0.021198957
0.024635696
0.028109658
0.031509589
0.03481804
0.038018517
0.041129759
0.043264698
0.043392677
0.042545045
0.040443779
0.036969797
0.032128004
0.026160974
0.01958635
0.013121033
0.0075209561
0.0033937111
0.0010634162
0.00053577355
0.0015589402
0.003736599
0.0066411522
0.010065852
0.013651772
0.017057601
0.020186126
0.022997175
0.025485566
0.027666193
0.02956574
0.031217472
0.032659181
0.033931839
0.035081128
0.036157828
0.037223745
0.015169995
0.012830685
0.010852158
0.009163283
0.0076900085
0.0063806383
0.0051877034
0.0041276918
0.0032543148
0.002571938
0.0020412988
0.0016122336
0.0012381124
0.00093691687
0.00069222874
0.00049658141
0.00034574897
0.00023452111
0.00015658977
0.00010094858
6.0854441e-05
3.3275331e-05
1.6390775e-05
7.2700667e-06
2.0409458e-06
6.7043769e-07
0.017944098
0.021175343
0.024718129
0.02838691
0.032029594
0.035603411
0.039118313
0.042551446
0.045886972
0.048028207
0.047836673
0.046470899
0.043629683
0.039223357
0.033349849
0.026396963
0.01904543
0.012135549
0.0064633507
0.0025843465
0.00070623973
0.00070105813
0.0022081885
0.0047677411
0.0081275918
0.011855223
0.015497829
0.018900307
0.021987943
0.024735973
0.027148918
0.029248316
0.03106556
0.032637531
0.034005316
0.035212789
0.036308656
0.037347168
0.038395415
0.017933774
0.015235594
0.012942179
0.010975536
0.0092548665
0.0077423735
0.0063938562
0.00517072
0.0040956313
0.0032117403
0.0025230279
0.0019798965
0.0015179327
0.0011526451
0.00085946301
0.00062498137
0.00044132443
0.00030276693
0.0002026095
0.00013333192
8.4923105e-05
5.0824659e-05
2.7836757e-05
1.3689974e-05
5.9456922e-06
1.639852e-06
4.912868e-07
0.021094941
0.024692341
0.028514889
0.032392345
0.036232423
0.04003362
0.043805315
0.047509399
0.051083047
0.053182801
0.05256753
0.050541745
0.046788381
0.041282074
0.034250925
0.026263562
0.018175495
0.010932688
0.0053320539
0.0018332845
0.00049726009
0.0010545141
0.0030460091
0.0061795676
0.0099603009
0.013804065
0.017476107
0.020853056
0.02388194
0.026551649
0.028875838
0.03088233
0.03260707
0.034090807
0.035377601
0.036514319
0.037552507
0.038550375
0.039580617
0.021044054
0.017969558
0.015334331
0.013064593
0.011060968
0.0092952911
0.0077422511
0.0063619072
0.0051200301
0.004034053
0.003146865
0.0024422832
0.0018614524
0.0014128352
0.0010588083
0.00077928149
0.00055938707
0.00039065607
0.00026497987
0.00017558544
0.00011401184
7.1802972e-05
4.2562674e-05