/*--------------------------------*- C++ -*----------------------------------*\
  =========                 |
  \\      /  F ield         | OpenFOAM: The Open Source CFD Toolbox
   \\    /   O peration     | Website:  https://openfoam.org
    \\  /    A nd           | Version:  8
     \\/     M anipulation  |
\*---------------------------------------------------------------------------*/
FoamFile
{
    version     2.0;
    format      ascii;
    class       volVectorField;
    location    "100.9663773";
    object      U;
}
// * * * * * * * * * * * * * * * * * * * * * * * * * * * * * * * * * * * * * //

dimensions      [0 1 -1 0 0 0 0];

internalField   nonuniform List<vector> 
9200
(
(1.0320292 -0.00095884837 -8.4304667e-24)
(1.0326003 -0.0030283058 -4.7911232e-22)
(1.0348555 -0.00077124642 0)
(1.0337454 -0.0047219827 2.2069774e-22)
(1.0354265 -0.0023888758 -2.861928e-22)
(1.0356956 -0.00070575249 0)
(1.0353546 -0.0063709091 2.4934698e-23)
(1.0364218 -0.0036341075 -8.6666412e-23)
(1.0361378 -0.0021717818 0)
(1.0369977 -0.00062356867 0)
(1.0374002 -0.0077157064 -2.8718924e-22)
(1.0378382 -0.0047833826 1.5181577e-22)
(1.0370068 -0.0032812378 -1.8019874e-22)
(1.0373903 -0.001931226 -1.4123056e-23)
(1.0378978 -0.00058080985 6.2120869e-25)
(1.0398354 -0.0088993245 -2.5283718e-22)
(1.0395996 -0.0055714299 1.3325062e-22)
(1.0382533 -0.0042920227 -5.0376142e-22)
(1.0381403 -0.0029057126 -1.1760235e-22)
(1.0382307 -0.0018250044 6.5085551e-23)
(1.0388222 -0.00054727314 8.4992285e-22)
(1.0426448 -0.0097895077 1.8514794e-22)
(1.0416597 -0.0061059168 -2.6250261e-22)
(1.0397862 -0.0049114828 3.5857844e-22)
(1.0391741 -0.0038132927 -5.7861028e-24)
(1.0388823 -0.0027534864 -3.5593256e-22)
(1.0391208 -0.0017587068 -3.2671507e-22)
(1.0396551 -0.00052407498 -3.4770634e-23)
(1.045809 -0.010422397 5.7101491e-22)
(1.0439679 -0.0062416 1.3968761e-22)
(1.0415009 -0.0052497494 -1.7689422e-22)
(1.0404032 -0.0043758655 2.2165133e-22)
(1.0397788 -0.0036499764 6.2778483e-22)
(1.0397087 -0.002666262 2.7975905e-22)
(1.0399305 -0.0017295016 6.6747601e-22)
(1.0404554 -0.00050530887 -1.0369548e-21)
(1.0493353 -0.010740001 -5.7998084e-22)
(1.0464757 -0.0059645631 -3.642471e-22)
(1.0433155 -0.0052190771 2.6757503e-22)
(1.0417499 -0.0046930532 -2.5873029e-22)
(1.0408172 -0.0042340632 4.6302427e-22)
(1.0405008 -0.0035837224 1.3211225e-21)
(1.0404714 -0.0026350426 -8.2677778e-22)
(1.0407242 -0.0017165265 1.2024615e-21)
(1.0412176 -0.00048822435 2.3881138e-21)
(1.0532497 -0.010750668 8.5588416e-22)
(1.0491589 -0.005168802 8.9009808e-22)
(1.0451304 -0.0047441096 -8.7598109e-23)
(1.0430608 -0.0046417805 -9.4873584e-22)
(1.0418767 -0.004621785 7.5252062e-24)
(1.0413713 -0.0042320389 7.2731619e-22)
(1.0411916 -0.003593088 -5.1809853e-22)
(1.041249 -0.0026270978 -1.1038389e-21)
(1.0414888 -0.0017091987 -5.7674348e-22)
(1.0419466 -0.00047062458 -1.5896499e-22)
(1.0576024 -0.010438556 -3.6178003e-22)
(1.052043 -0.0037744276 9.169983e-22)
(1.0469077 -0.0037332087 -5.319691e-22)
(1.0442051 -0.0041668275 7.4792405e-23)
(1.0427967 -0.0046983651 -1.5763575e-21)
(1.0421872 -0.0047508549 2.0169907e-21)
(1.0419682 -0.0043297054 2.1904166e-22)
(1.0419496 -0.0036340948 -2.1551753e-21)
(1.0420113 -0.0026252795 1.113969e-21)
(1.0422294 -0.0016991529 -2.2303597e-21)
(1.0426409 -0.00045138643 4.2463801e-22)
(1.0624359 -0.0097729844 -1.7088228e-22)
(1.0551601 -0.0017122904 -1.6773193e-21)
(1.0486418 -0.0021355927 -3.9302582e-22)
(1.0451533 -0.0032417098 0)
(1.0434441 -0.0044675375 5.1494878e-23)
(1.0428385 -0.005008935 -8.6378346e-22)
(1.0426849 -0.0050154969 4.6591754e-22)
(1.042709 -0.0044681469 1.1433534e-21)
(1.042723 -0.0036754404 -5.3094707e-22)
(1.042769 -0.002614726 1.4466209e-21)
(1.0429406 -0.001681479 1.0309336e-21)
(1.0432985 -0.00043001876 -2.2310057e-22)
(1.0677823 -0.0087420036 -2.1299689e-23)
(1.0585118 0.0010709693 6.9384368e-22)
(1.0503101 0.00013157121 0)
(1.0458618 -0.001820459 0)
(1.0437843 -0.0039370008 6.7661855e-22)
(1.0432774 -0.0051649533 -1.8435294e-21)
(1.043254 -0.0055921645 1.7275267e-21)
(1.0434338 -0.0053323589 -1.1847413e-21)
(1.0435173 -0.0045858634 -6.0947066e-23)
(1.0435167 -0.0036932781 5.4029359e-24)
(1.0435036 -0.0025873306 -2.0144707e-21)
(1.0436184 -0.0016533249 2.3671946e-21)
(1.0439169 -0.00040634537 -4.3080111e-21)
(1.0736734 -0.0073275032 6.0690898e-22)
(1.0620997 0.0046674698 -8.5124092e-23)
(1.0518388 0.0031584902 9.3773456e-22)
(1.0462363 0.0001789533 -1.165881e-21)
(1.0437384 -0.0030927255 1.1042929e-21)
(1.0433459 -0.0051774263 -6.3104609e-22)
(1.0436131 -0.0061337374 -2.9142082e-22)
(1.0440476 -0.0061774984 5.1014897e-23)
(1.0443265 -0.0055803243 -8.3975268e-22)
(1.0443784 -0.0046504699 -7.3565454e-22)
(1.0442964 -0.0036756382 -5.1604081e-22)
(1.0442077 -0.0025388799 -1.404064e-21)
(1.0442581 -0.0016146276 -9.8246248e-22)
(1.0444946 -0.00037953548 1.2317564e-21)
(1.0801508 -0.0054997732 -2.4405033e-21)
(1.0659428 0.0091431151 -2.6752495e-21)
(1.0531707 0.0070450709 -5.7708407e-22)
(1.0461499 0.0028217612 2.1411489e-22)
(1.0431753 -0.0018849301 -1.5669532e-22)
(1.0429666 -0.0050832838 8.9784857e-22)
(1.0436802 -0.0066926645 -3.1289531e-22)
(1.0445165 -0.0071091048 4.0560385e-22)
(1.0450964 -0.0066140362 -2.8363073e-22)
(1.0453076 -0.005716383 4.5371368e-23)
(1.0452321 -0.0046451093 3.2225968e-23)
(1.0450472 -0.0036207727 -1.2216234e-22)
(1.0448747 -0.0024695757 2.1650672e-21)
(1.0448564 -0.0015652638 -1.14133e-21)
(1.0450297 -0.00034858882 9.9596335e-22)
(1.0873319 -0.0033153062 -3.5623487e-22)
(1.0700828 0.014550576 2.2354519e-22)
(1.0542727 0.011880879 -1.6530537e-21)
(1.0455119 0.0061792099 1.634949e-21)
(1.0419547 -0.0002966584 -1.5239149e-21)
(1.0420081 -0.0048948382 1.8369178e-21)
(1.0433626 -0.0073239042 -2.4393358e-21)
(1.044786 -0.0081671299 1.2314617e-22)
(1.045813 -0.0077997058 4.0820242e-22)
(1.0462639 -0.0068329481 -6.8971301e-22)
(1.0462762 -0.0057233793 3.6596229e-21)
(1.0460495 -0.0045764142 -1.5083665e-21)
(1.0457563 -0.003533199 -7.4396002e-22)
(1.0455002 -0.0023819223 -2.4173361e-22)
(1.0454117 -0.0015043785 2.417828e-23)
(1.0455202 -0.00031336198 -1.1279978e-21)
(1.0951847 -0.00065527249 0)
(1.0745887 0.020948796 6.3840013e-22)
(1.0551161 0.017743589 1.1601973e-21)
(1.0442455 0.010312362 0)
(1.0399735 0.0016879925 0)
(1.0403528 -0.0046281359 0)
(1.0425368 -0.0081141075 2.1793642e-22)
(1.044807 -0.0094407166 -1.0509702e-21)
(1.0464397 -0.0091731656 1.2897289e-21)
(1.0472388 -0.0080989956 -1.1203826e-21)
(1.0473937 -0.0068326523 2.1016164e-22)
(1.0471859 -0.005626546 -7.7774514e-22)
(1.0468115 -0.0044608112 1.4419857e-22)
(1.0464213 -0.0034202079 8.5045844e-22)
(1.0460831 -0.0022781454 1.5146088e-22)
(1.0459234 -0.001431717 5.8339096e-22)
(1.0459644 -0.00027403526 0)
(1.1031627 0.002506092 -1.4668567e-21)
(1.0795103 0.02849075 2.244728e-21)
(1.0556592 0.024699145 7.038785e-21)
(1.0422677 0.015270059 4.7389436e-21)
(1.0371277 0.0040817898 3.6200295e-21)
(1.0379082 -0.0043232089 0)
(1.0411065 -0.0091127563 2.4320727e-21)
(1.0444816 -0.011001796 -5.4413777e-22)
(1.0469391 -0.01081202 -2.823124e-21)
(1.0482261 -0.0095461982 1.321537e-21)
(1.0485955 -0.0080578862 6.5219934e-22)
(1.0484234 -0.0066751355 2.2606214e-22)
(1.0480129 -0.0054650459 -2.0132143e-21)
(1.0475173 -0.0043155786 2.8036513e-21)
(1.0470422 -0.0032882282 4.6694168e-22)
(1.0466244 -0.0021590818 4.2692137e-21)
(1.0463908 -0.001347152 1.5773687e-21)
(1.0463608 -0.00023078822 1.444627e-21)
(1.1109481 0.0058071786 4.913472e-23)
(1.0845681 0.036866149 1.5600335e-21)
(1.0558664 0.033059191 -3.3472998e-23)
(1.039458 0.021097303 4.9077387e-21)
(1.0333105 0.0068866406 -5.6604773e-22)
(1.0345738 -0.0040080615 8.0710255e-22)
(1.0389914 -0.010390196 -2.369997e-21)
(1.0437323 -0.012943127 -3.7377552e-21)
(1.0472694 -0.012793942 -1.0177985e-21)
(1.0492246 -0.011245296 1.1191114e-21)
(1.0498898 -0.0094122324 -2.57219e-22)
(1.049781 -0.0077864544 1.7143165e-21)
(1.0493213 -0.0064320372 -1.1568912e-21)
(1.0487579 -0.0052740244 1.0693424e-23)
(1.0481716 -0.0041543222 -8.2235166e-23)
(1.047623 -0.0031399917 -7.1760168e-22)
(1.0471248 -0.0020242707 1.4599511e-21)
(1.0468132 -0.0012497981 -5.5247917e-23)
(1.0467077 -0.00018411912 1.3296293e-21)
(1.1148975 0.009369544 -5.8853237e-23)
(1.0894474 0.04617426 -4.6014127e-21)
(1.0556615 0.042494861 -1.3640668e-20)
(1.0356817 0.028001283 -3.2444668e-21)
(1.0283865 0.010101629 1.456429e-21)
(1.0302519 -0.0037244159 4.2138385e-22)
(1.0361098 -0.012008545 5.540013e-22)
(1.0425016 -0.015359377 1.986981e-21)
(1.0474117 -0.015229323 -3.8994867e-22)
(1.0502492 -0.013280405 -2.6233137e-21)
(1.0513145 -0.010952474 2.1448676e-21)
(1.0512798 -0.0089499912 -1.2842412e-22)
(1.0507549 -0.0074041711 -6.382588e-22)
(1.0500919 -0.0061663903 4.7077757e-23)
(1.0494356 -0.0050791616 8.1086974e-23)
(1.0487859 -0.0039833022 -2.5982172e-21)
(1.0481676 -0.002974152 6.9414595e-22)
(1.0475843 -0.0018720774 -2.4362875e-21)
(1.0471903 -0.0011383475 -6.0063887e-22)
(1.0470041 -0.00013449667 -1.359988e-21)
(1.1109482 0.013552758 2.612484e-22)
(1.0916834 0.056740046 -9.3236632e-21)
(1.0541923 0.053308041 5.0028525e-21)
(1.0310367 0.035757327 5.7889209e-21)
(1.0221394 0.013789005 -9.4186402e-22)
(1.0248301 -0.003500455 -2.7647943e-21)
(1.0323769 -0.014016209 4.673378e-21)
(1.0407384 -0.018346564 4.8775681e-21)
(1.0473555 -0.018236441 -2.3115165e-21)
(1.0513309 -0.015752553 0)
(1.0529208 -0.012735681 -1.4730555e-21)
(1.0529716 -0.010188381 6.6416358e-22)
(1.0523311 -0.0083422354 1.9521344e-21)
(1.0515274 -0.0070153993 -1.7311853e-21)
(1.0507659 -0.0059239236 8.3293516e-22)
(1.0500711 -0.0048925325 -2.1463289e-21)
(1.0493708 -0.0038001909 -5.408231e-23)
(1.0486784 -0.0027863711 9.1421682e-22)
(1.0480022 -0.0017000813 -1.4724827e-21)
(1.0475204 -0.0010123301 -1.3542914e-22)
(1.0472499 -8.1803878e-05 -1.229513e-21)
(1.0926481 0.01950387 7.4062766e-22)
(1.078551 0.067900882 -9.4114175e-21)
(1.0483124 0.065848192 6.5460482e-21)
(1.0252061 0.044472771 -1.1177803e-20)
(1.014698 0.017895274 -7.9690306e-21)
(1.0181548 -0.0033997862 9.5846803e-22)
(1.0277163 -0.016472452 0)
(1.0383933 -0.021997463 2.665085e-21)
(1.0470919 -0.02193292 5.9952402e-22)
(1.0525094 -0.018772563 -2.7650931e-21)
(1.0547816 -0.014831573 -6.4193798e-22)
(1.0549269 -0.01151726 3.8004229e-22)
(1.0541004 -0.0092320369 -1.2678143e-22)
(1.0530677 -0.0077582552 -6.4042234e-22)
(1.0521551 -0.0066984238 1.2693326e-21)
(1.0513913 -0.0057262243 -1.2388756e-21)
(1.0506845 -0.0047102672 2.8370139e-22)
(1.049932 -0.0035973199 -1.7693948e-21)
(1.0491558 -0.0025721505 -3.2060265e-22)
(1.0483772 -0.0015059539 -6.6343225e-23)
(1.0478016 -0.00087197807 -7.3235581e-22)
(1.0474445 -2.6051178e-05 0)
(1.0615536 0.026976065 -5.0579207e-24)
(1.0477217 0.078985128 5.2142527e-21)
(1.034712 0.07859192 -9.4727153e-22)
(1.0170745 0.054094889 -1.4163054e-20)
(1.006107 0.022332558 -7.0102609e-21)
(1.0100791 -0.0034094677 3.4245601e-21)
(1.0220486 -0.019443172 -2.86152e-21)
(1.0354215 -0.026396277 3.6624472e-21)
(1.0466109 -0.026434157 1.2337993e-21)
(1.0538283 -0.022458376 -6.2878532e-23)
(1.056986 -0.017320957 2.0642115e-23)
(1.0572439 -0.012957762 -4.3998842e-22)
(1.0561302 -0.010045638 1.6199451e-22)
(1.0547466 -0.0083508931 2.3002914e-22)
(1.0535849 -0.0073259485 -1.5494497e-21)
(1.052722 -0.0064898628 -1.9244312e-21)
(1.0520047 -0.0055661295 9.0916695e-23)
(1.0512901 -0.0045168621 3.2037159e-21)
(1.0504724 -0.0033660089 1.3625439e-22)
(1.0495982 -0.0023282476 -9.6181122e-22)
(1.0487075 -0.0012884404 0)
(1.0480326 -0.00071762942 1.5442022e-21)
(1.0475862 3.3249546e-05 3.7051265e-23)
(1.0228119 0.035568102 6.1581076e-21)
(1.006223 0.089100863 1.5784471e-20)
(1.010209 0.089729832 1.0111202e-20)
(1.0042485 0.063216878 4.4904952e-21)
(0.99617883 0.027166008 -1.50841e-20)
(1.0009069 -0.0036343056 0)
(1.0152394 -0.023016233 -7.5427167e-22)
(1.0317807 -0.031616267 3.0182611e-21)
(1.0458986 -0.031849853 1.7885288e-22)
(1.05533 -0.026931731 -2.9293524e-21)
(1.0596349 -0.020296122 -1.0658781e-21)
(1.0600461 -0.0145391 -4.6432084e-22)
(1.0585193 -0.010750272 1.0498821e-21)
(1.0566132 -0.0087314615 -1.2894797e-21)
(1.055068 -0.0077405399 2.4897629e-21)
(1.0540223 -0.0071023751 3.4479325e-21)
(1.0532902 -0.0063746814 -1.321578e-21)
(1.0526329 -0.0054153195 1.2874214e-21)
(1.0518954 -0.0042964887 -3.8808696e-21)
(1.050991 -0.0030985693 9.8682379e-22)
(1.0500028 -0.0020518477 2.003924e-21)
(1.0489908 -0.0010471139 -1.5550541e-21)
(1.0482134 -0.00055012691 8.5206911e-22)
(1.0476729 9.6980022e-05 3.1524934e-23)
(0.98118172 0.044611916 1.6475369e-21)
(0.95883165 0.098589277 7.4808336e-21)
(0.97502121 0.098352294 -8.0011553e-21)
(0.98441598 0.070641537 -3.0686871e-20)
(0.98446458 0.031870092 9.4681287e-21)
(0.99084272 -0.0040534439 -1.4760777e-20)
(1.0073388 -0.027191275 -8.1502252e-22)
(1.0274304 -0.037731504 -4.5938008e-21)
(1.0449347 -0.038274365 2.2552457e-21)
(1.0570508 -0.032316196 -3.0444408e-22)
(1.0628345 -0.023860799 -1.468096e-21)
(1.0634772 -0.016297734 -4.1816422e-22)
(1.0613948 -0.011310477 -5.6320635e-22)
(1.0587356 -0.0088164643 -1.1172904e-22)
(1.0566133 -0.0078678268 8.3693094e-22)
(1.0552802 -0.0074863046 4.2782662e-22)
(1.0544739 -0.0070569555 -2.8427711e-22)
(1.0539031 -0.0063044289 2.0978048e-21)
(1.053291 -0.0052463522 0)
(1.0525 -0.0040362086 3.7297008e-22)
(1.0514843 -0.0027881703 1.0625416e-22)
(1.0503659 -0.0017403325 -1.8915832e-22)
(1.0492251 -0.00078252643 -5.4870554e-23)
(1.0483452 -0.00037022091 -1.2616342e-21)
(1.0477065 0.00016370817 -4.4629886e-22)
(0.93967828 0.053739703 -1.0092841e-20)
(0.91040067 0.10747973 4.1617895e-22)
(0.93352629 0.10472055 5.9235717e-21)
(0.95671633 0.075618878 3.2978712e-21)
(0.96959347 0.035726612 2.865482e-20)
(0.97959394 -0.0047467824 9.7834483e-22)
(0.99879891 -0.031994644 -9.7939081e-22)
(1.0222817 -0.044803471 3.8321773e-22)
(1.0437083 -0.045797849 3.1814163e-22)
(1.0590172 -0.03873113 -2.575007e-21)
(1.0666924 -0.028130009 -5.5330633e-22)
(1.0676951 -0.018282987 2.3752859e-22)
(1.064911 -0.011690316 -1.3327439e-22)
(1.0612116 -0.0085096134 1.330506e-22)
(1.0582327 -0.0075717068 -5.9465556e-22)
(1.0564263 -0.007565139 -1.128773e-21)
(1.0555011 -0.0075357193 -9.318135e-22)
(1.0550053 -0.0071144565 -3.0496109e-21)
(1.0545897 -0.0062359728 -4.5273031e-21)
(1.0539809 -0.0050377412 -3.864278e-23)
(1.0530994 -0.003723221 4.2633628e-21)
(1.0519465 -0.0024297586 7.0501413e-22)
(1.050684 -0.0013925213 -1.5158317e-21)
(1.0494077 -0.00049682766 1.2149181e-21)
(1.0484281 -0.00017891005 -7.8313223e-22)
(1.0476946 0.00022696632 4.6099145e-23)
(0.89995707 0.062705194 4.5409415e-22)
(0.86370873 0.11590975 9.8572776e-22)
(0.88960261 0.10949824 -1.1103915e-20)
(0.92231977 0.077801128 1.2235873e-20)
(0.94998425 0.037596925 -1.9966171e-20)
(0.96705504 -0.0059776916 1.398498e-20)
(0.9896303 -0.037354805 2.9098732e-21)
(1.0165596 -0.052845723 5.936556e-21)
(1.0422268 -0.054442589 1.1188109e-21)
(1.0612295 -0.046302207 1.6693419e-21)
(1.0713128 -0.033226725 8.3172614e-22)
(1.0728699 -0.020553181 2.2771062e-21)
(1.0692355 -0.011859262 -1.5615994e-22)
(1.0641701 -0.0077106921 -7.1868404e-22)
(1.0599904 -0.0067323923 2.1564586e-22)
(1.0574307 -0.0071619063 5.4363965e-22)
(1.0562982 -0.0076861709 -1.9221827e-21)
(1.05585 -0.0077737943 2.1710375e-21)
(1.0556745 -0.0072123828 -2.0319846e-21)
(1.0553573 -0.0061350927 1.9407645e-22)
(1.0546975 -0.0047677324 0)
(1.0536852 -0.0033464112 1.6729976e-21)
(1.0523705 -0.002020687 3.02757e-22)
(1.0509522 -0.0010101787 0)
(1.049536 -0.00019272784 -1.4266274e-21)
(1.0484581 2.0053043e-05 -1.2381763e-22)
(1.0476365 0.00029642339 1.9673378e-22)
(0.86285288 0.071349605 3.4669657e-21)
(0.82027787 0.12414911 5.7107612e-22)
(0.84605941 0.11317855 -3.4575221e-21)
(0.88402886 0.077520871 -5.023394e-23)
(0.92565465 0.036933627 -4.0906834e-21)
(0.95287295 -0.0080264398 -1.4767696e-20)
(0.97942705 -0.043374049 -4.7030193e-22)
(1.0106005 -0.06170489 -3.0035828e-21)
(1.0403705 -0.064385538 -2.0615965e-21)
(1.0637127 -0.055072722 -2.1855251e-21)
(1.0767952 -0.039277847 7.4455337e-21)
(1.07918 -0.023180163 2.6219889e-21)
(1.0745484 -0.011778992 7.7687353e-22)
(1.0677383 -0.0063129648 -4.6793953e-23)
(1.0619562 -0.0052014616 -1.5634985e-21)
(1.058334 -0.0061812189 4.218413e-22)
(1.056758 -0.0074721027 -2.8210208e-21)
(1.0563474 -0.0081799937 6.5791792e-21)
(1.0564352 -0.008128155 2.2356378e-21)
(1.0565009 -0.0072962814 6.6890992e-22)
(1.0562015 -0.0059659577 2.605188e-21)
(1.0554292 -0.0044159333 -4.0153133e-22)
(1.0542463 -0.0028991645 -1.6449339e-22)
(1.0527489 -0.0015605803 0)
(1.0511672 -0.00059522271 0)
(1.0496094 0.00012844906 1.2364536e-22)
(1.0484342 0.00022950427 -4.8699407e-22)
(1.0475307 0.00036624612 -1.5308496e-22)
(0.82877364 0.079540553 0)
(0.78083627 0.13201221 9.6154037e-22)
(0.80494734 0.11584368 -6.354583e-22)
(0.84469827 0.075308468 1.6307837e-21)
(0.8978807 0.033643129 1.1158014e-20)
(0.93672808 -0.011559955 5.9875626e-22)
(0.96834884 -0.050031011 -6.2091054e-21)
(1.0039179 -0.071324517 -2.9807962e-21)
(1.0383225 -0.075385102 1.0238916e-21)
(1.0664847 -0.065299718 -1.5474357e-21)
(1.0831901 -0.04642699 -7.0255519e-22)
(1.0868127 -0.026237174 -3.4057164e-22)
(1.0810421 -0.011416567 4.2540196e-21)
(1.0720449 -0.004187984 -5.3054434e-22)
(1.0641781 -0.002817791 1.391972e-22)
(1.0591282 -0.0044516846 -2.1912838e-21)
(1.056841 -0.0067184376 7.0097702e-22)
(1.056434 -0.0082830284 -2.1179172e-21)
(1.056769 -0.0089224936 5.3060273e-21)
(1.0572961 -0.0085023786 -1.3049687e-21)
(1.0574806 -0.0073088673 2.2605996e-21)
(1.0571053 -0.0056933899 1.4478431e-21)
(1.0561586 -0.0039684982 -1.4051077e-22)
(1.0547701 -0.0023794186 -4.0011071e-21)
(1.0530748 -0.0010513763 -1.2141419e-21)
(1.0513271 -0.00014906378 2.893241e-22)
(1.049631 0.00046636239 8.2631662e-22)
(1.0483592 0.00044533207 -1.2541178e-22)
(1.0473823 0.00043563019 -2.2592935e-22)
(0.7978972 0.087142523 -9.3832303e-21)
(0.74589447 0.13944702 0)
(0.76759679 0.11786044 0)
(0.80650758 0.071770511 0)
(0.86819955 0.028022633 -1.5607912e-21)
(0.91873691 -0.016894651 1.0379436e-20)
(0.95658554 -0.057319357 -2.0933034e-21)
(0.99634375 -0.081750239 -3.7124318e-21)
(1.0359128 -0.08727169 -4.6101867e-21)
(1.0691217 -0.076822622 1.5359119e-20)
(1.0906481 -0.05491585 -3.3466515e-21)
(1.0960274 -0.029818906 1.8718505e-21)
(1.088929 -0.010701373 -2.2142473e-21)
(1.0772286 -0.0011988428 1.5465026e-21)
(1.0667013 0.00059998816 3.5069593e-21)
(1.0597714 -0.0017924488 4.8156131e-22)
(1.0565102 -0.005289838 -2.9340226e-21)
(1.0559516 -0.0080269821 -2.3971738e-21)
(1.0565883 -0.0095280901 1.2597854e-21)
(1.057626 -0.009732119 -1.3700484e-21)
(1.0584262 -0.0088025293 -2.7585106e-21)
(1.0585881 -0.00719084 4.1107071e-22)
(1.0580419 -0.0052919244 3.3524765e-21)
(1.0568654 -0.0034195721 -1.8547196e-21)
(1.0552445 -0.001788188 -2.7533571e-22)
(1.0533423 -0.00049710608 -5.3460261e-22)
(1.0514278 0.00032334171 9.2787556e-22)
(1.0496014 0.00081670134 5.3122529e-22)
(1.0482361 0.00066826679 2.3379631e-23)
(1.047193 0.00050452862 -3.6775744e-22)
(0.76781191 0.094648927 1.4998222e-22)
(0.71572687 0.14637952 -7.8405378e-22)
(0.73471258 0.11933582 0)
(0.77091837 0.067469043 0)
(0.83796888 0.020553376 0)
(0.89928405 -0.024022258 0)
(0.94419057 -0.06536276 0)
(0.98812249 -0.092790487 9.990814e-22)
(1.032839 -0.10012585 -1.3167418e-21)
(1.0714973 -0.089449268 -2.2560838e-20)
(1.0984655 -0.064620631 -8.2876355e-22)
(1.1069244 -0.034159145 -7.6091059e-21)
(1.0985087 -0.0096666243 1.0818645e-20)
(1.0834445 0.0028580559 7.3793523e-22)
(1.0695778 0.0052413575 -4.1682568e-22)
(1.0602287 0.0019775366 1.978224e-21)
(1.0556674 -0.0030284894 -3.0074792e-21)
(1.0547749 -0.0072939164 1.553921e-21)
(1.0557798 -0.0099283066 2.6226546e-21)
(1.0574093 -0.010970807 1.5539414e-21)
(1.058927 -0.010464467 3.8078929e-22)
(1.0597806 -0.0089348713 2.3380277e-21)
(1.05978 -0.0068983726 8.6990489e-23)
(1.0589794 -0.0047489352 -1.3088072e-21)
(1.0575296 -0.0027689856 1.0332122e-21)
(1.0556591 -0.0011297447 3.0823988e-21)
(1.0535469 9.6236502e-05 7.6142019e-22)
(1.0514687 0.00081673544 -4.0035076e-22)
(1.0495201 0.0011772516 5.8555725e-23)
(1.0480674 0.00089683729 3.7081189e-22)
(1.0469642 0.00057381819 3.0017013e-22)
(0.73781449 0.10217457 2.3953878e-21)
(0.68862091 0.15307218 1.1222485e-21)
(0.70653988 0.12038842 -2.0012793e-20)
(0.73872021 0.062805176 -2.0242437e-20)
(0.80832272 0.011767652 0)
(0.87880078 -0.032726148 0)
(0.93118068 -0.074226441 -1.5146005e-21)
(0.97946581 -0.10435444 3.6593976e-22)
(1.0292553 -0.11385706 5.1796536e-21)
(1.0738228 -0.10332583 -2.0372507e-20)
(1.1064966 -0.07562926 2.7747305e-21)
(1.1187518 -0.039133379 2.1763701e-20)
(1.109961 -0.0081613883 -1.573931e-21)
(1.0908686 0.0080013219 1.1745492e-22)
(1.0728618 0.01130128 -2.7544117e-21)
(1.0604667 0.0070380027 -8.725469e-23)
(1.0542223 0.00020603849 8.5968377e-21)
(1.0527998 -0.0059636888 -4.011504e-22)
(1.0541667 -0.010090438 -4.2264534e-21)
(1.0565139 -0.012194306 9.7986832e-21)
(1.0588867 -0.012303395 -1.1258976e-22)
(1.0605829 -0.010966754 -2.5630338e-21)
(1.0612913 -0.0088280676 4.9954146e-21)
(1.0610069 -0.0064088761 2.7175441e-21)
(1.0598854 -0.0040624541 -1.7687416e-23)
(1.0581342 -0.0020212153 1.8362587e-21)
(1.0560052 -0.00041179505 9.0964258e-22)
(1.0536864 0.00072339535 5.2627e-23)
(1.0514513 0.0013268723 -2.729109e-22)
(1.0493894 0.0015437491 -2.3075268e-22)
(1.0478561 0.0011277206 5.5210809e-22)
(1.0466988 0.00064329515 4.3949373e-23)
(0.71021828 0.10909303 8.2661241e-22)
(0.66492356 0.15956246 1.0559472e-21)
(0.68111765 0.12181025 4.0238272e-20)
(0.71029983 0.058000765 3.9843404e-20)
(0.78007736 0.0022064222 0)
(0.85776093 -0.042684657 0)
(0.91765538 -0.083876191 0)
(0.9704147 -0.11637879 -2.045752e-21)
(1.0251828 -0.12843115 -2.08933e-20)
(1.0763256 -0.11858118 -2.751042e-20)
(1.1154813 -0.088310086 4.0446733e-21)
(1.1318968 -0.045061299 5.3287444e-21)
(1.1226189 -0.0062970263 -3.2255452e-20)
(1.0996626 0.014602688 9.6633433e-21)
(1.0765882 0.018935166 -2.206674e-21)
(1.0604479 0.013563844 0)
(1.0520779 0.0045532523 2.8297474e-21)
(1.0499198 -0.0039455827 -2.4289372e-21)
(1.0516005 -0.0099697709 1.6190035e-21)
(1.0547984 -0.013405166 5.3298573e-22)
(1.0582077 -0.014352535 -4.7902035e-21)
(1.0609127 -0.013324294 -3.5618606e-22)
(1.062489 -0.011138562 -4.0349407e-21)
(1.062882 -0.0084474068 -4.4168835e-21)
(1.0622193 -0.005717486 1.04066e-21)
(1.0607326 -0.0032377036 5.5775199e-22)
(1.0586636 -0.0011866925 -3.4032493e-22)
(1.0562774 0.00035687392 1.2067137e-24)
(1.053759 0.0013772088 -2.0985812e-22)
(1.0513772 0.0018480454 -4.4567087e-22)
(1.0492115 0.0019130592 2.96094e-22)
(1.0476065 0.001357514 -2.128111e-21)
(1.0463994 0.00071114835 9.794478e-22)
(0.68606092 0.11514285 2.8011761e-21)
(0.646262 0.16541332 -4.1823235e-22)
(0.65863719 0.12389403 8.8743192e-20)
(0.68362189 0.054086379 9.480469e-20)
(0.75381136 -0.007935867 -1.3742692e-20)
(0.83674591 -0.053639396 -1.0754329e-21)
(0.90389105 -0.094221584 -2.6884285e-21)
(0.96107853 -0.12866175 3.0873444e-21)
(1.0203418 -0.1435762 7.9422944e-21)
(1.0780252 -0.13489058 6.6652733e-20)
(1.1249136 -0.10233143 -4.1038924e-20)
(1.1470091 -0.052151146 -6.0511173e-20)
(1.1372396 -0.0041820462 1.6615759e-21)
(1.1094646 0.022568351 3.1457654e-21)
(1.080851 0.0285514 -2.9139823e-21)
(1.0601181 0.021707934 1.2828969e-21)
(1.0491344 0.01014325 1.5223262e-21)
(1.0460088 -0.0011512525 3.0036054e-21)
(1.0479507 -0.0095225841 -9.0630751e-22)
(1.0521113 -0.014610604 -6.9605935e-22)
(1.0567422 -0.016621884 8.5557779e-22)
(1.0606645 -0.016049694 -7.8590231e-21)
(1.0633015 -0.013880984 4.3504628e-22)
(1.0645347 -0.010931111 6.5824535e-22)
(1.0644802 -0.0077851998 -5.7297615e-21)
(1.0633738 -0.0048322537 -1.7047359e-21)
(1.0614975 -0.0022879443 -1.3222477e-21)
(1.0591072 -0.00027754946 -8.4728855e-22)
(1.0564711 0.0011659201 -5.4746086e-22)
(1.0537649 0.0020500092 -9.0720422e-23)
(1.0512483 0.0023755965 8.5766436e-23)
(1.0489897 0.0022818161 -6.9487623e-23)
(1.047321 0.0015846779 1.0567245e-21)
(1.0460705 0.0007762322 -2.1955237e-21)
(0.66618534 0.1201321 -4.217354e-21)
(0.63284263 0.17039793 2.5417284e-22)
(0.64081704 0.12596684 -1.2521337e-19)
(0.65890719 0.051289153 -6.0542241e-20)
(0.72709133 -0.017451689 6.9646631e-20)
(0.81619273 -0.065566011 3.4608383e-20)
(0.89001766 -0.10514521 1.2670637e-21)
(0.95165067 -0.1410637 0)
(1.0143089 -0.15857655 1.283857e-20)
(1.0772161 -0.1509501 1.1286805e-19)
(1.1306747 -0.11627352 1.8933707e-20)
(1.1584523 -0.060168277 2.8578913e-20)
(1.1538398 -0.0017864578 0)
(1.1208367 0.031828684 4.5788931e-21)
(1.0855073 0.039968884 5.0714714e-21)
(1.0594294 0.031802348 -2.864763e-21)
(1.0452681 0.017074195 -1.4762423e-20)
(1.0409375 0.0025014503 0)
(1.0430848 -0.0087153276 2.4693547e-21)
(1.048316 -0.015831901 2.2579092e-21)
(1.054363 -0.019155442 -8.267748e-21)
(1.0597431 -0.019201301 1.3058674e-22)
(1.063656 -0.017121947 0)
(1.065912 -0.013921149 -5.930672e-21)
(1.066615 -0.01033587 1.3200328e-21)
(1.0660214 -0.0068535029 -5.4258367e-23)
(1.064436 -0.0037707584 -2.2881274e-21)
(1.0621617 -0.0012314516 1.4104001e-21)
(1.0594583 0.00069282866 1.1718923e-22)
(1.0565846 0.0020057883 -6.1858162e-22)
(1.0537054 0.0027348127 1.4520059e-22)
(1.0510675 0.0029044936 -1.2680699e-23)
(1.0487268 0.002647537 0)
(1.0470034 0.0018074979 -4.3098642e-23)
(1.0457154 0.00083856072 -7.779454e-22)
(0.65147589 0.12398911 -6.0979358e-21)
(0.62471852 0.17438016 3.7852353e-21)
(0.62824758 0.12812896 -1.4302889e-19)
(0.63831816 0.048833969 -2.5476902e-20)
(0.69985237 -0.026444049 2.5601587e-20)
(0.79345479 -0.077148218 7.0148122e-21)
(0.87594969 -0.11683588 1.8000546e-20)
(0.94137723 -0.15300901 3.4946592e-21)
(1.005497 -0.17253561 0)
(1.0706337 -0.16533565 -4.7686744e-20)
(1.1276185 -0.12820131 5.7609721e-20)
(1.1599709 -0.067662853 -4.264105e-21)
(1.1662238 0.0012809021 2.497624e-20)
(1.1326926 0.042852695 -1.5977138e-20)
(1.0907141 0.053270543 8.4536111e-21)
(1.0583738 0.043715008 6.2383156e-21)
(1.0403306 0.025541251 -3.7593341e-20)
(1.0345589 0.0070591579 -1.3725002e-20)
(1.0368711 -0.0075216938 9.4594937e-21)
(1.0432834 -0.017083665 -1.3109558e-20)
(1.0509498 -0.021998733 9.3252625e-21)
(1.0580372 -0.022845072 -4.134577e-21)
(1.0634717 -0.020930642 0)
(1.0669627 -0.017493866 -1.6875127e-21)
(1.0685909 -0.013432485 3.0393263e-22)
(1.0686378 -0.0093711231 2.528845e-21)
(1.0674548 -0.0056781341 1.3008132e-21)
(1.065378 -0.0025584949 6.5571277e-22)
(1.062714 -8.6154366e-05 8.3187739e-22)
(1.0597128 0.0017095788 0)
(1.0566187 0.0028661221 6.6587722e-22)
(1.0535829 0.0034249143 1.3668452e-22)
(1.0508378 0.00343069 2.4354324e-21)
(1.0484265 0.0030074781 -1.0734361e-21)
(1.0466566 0.0020251041 4.5777701e-23)
(1.0453375 0.00089819494 2.9415537e-21)
(0.6421926 0.12675046 7.5238766e-21)
(0.62154487 0.17730601 -7.373655e-23)
(0.62126652 0.13036491 5.0751065e-20)
(0.62273447 0.047187798 5.3133714e-22)
(0.67459617 -0.035656609 -1.3692902e-19)
(0.76816684 -0.089033076 -6.4798285e-20)
(0.85874461 -0.12763365 -1.1275388e-21)
(0.92981165 -0.16455118 1.0914807e-20)
(0.99311176 -0.18417094 4.8930394e-21)
(1.0563961 -0.17636604 4.7849948e-20)
(1.1120307 -0.13680962 -2.0645626e-21)
(1.1485967 -0.07055145 -3.3224129e-20)
(1.1615894 0.0067319574 -1.8921995e-22)
(1.1376916 0.056707624 -2.4554258e-20)
(1.094464 0.069271805 2.8085679e-21)
(1.0568737 0.057554083 -7.7989488e-21)
(1.0343785 0.035523064 1.6550604e-20)
(1.0266918 0.012573897 1.6428503e-20)
(1.0291729 -0.0059329211 -1.4524086e-20)
(1.0368917 -0.018396051 -3.5706211e-21)
(1.0463953 -0.025211665 5.8020566e-21)
(1.0554536 -0.027058024 -9.0343724e-21)
(1.0626826 -0.02539736 5.3573137e-21)
(1.0676444 -0.021729848 0)
(1.0703803 -0.01715361 6.2481956e-21)
(1.0712071 -0.012443635 5.9766828e-21)
(1.0705301 -0.0080751114 -1.5778083e-21)
(1.0687412 -0.0042948242 3.6708252e-21)
(1.0661824 -0.0012222493 1.6621162e-22)
(1.0631477 0.0011273691 -8.6707396e-22)
(1.0598693 0.0027590068 -1.9196421e-22)
(1.0565753 0.0037374536 -1.4489367e-21)
(1.0534007 0.0041141143 -1.1915402e-22)
(1.050563 0.0039503537 2.772888e-21)
(1.0480922 0.0033598546 -4.2762307e-22)
(1.0462842 0.0022366326 -1.1979055e-22)
(1.0449399 0.00095519313 1.16879e-21)
(0.63838005 0.12845515 7.6651333e-23)
(0.62300687 0.17907138 -3.8438999e-21)
(0.61974123 0.13244273 7.5453686e-20)
(0.61296228 0.046607665 2.9957273e-20)
(0.65211066 -0.044350511 -1.8490636e-22)
(0.74245342 -0.10200725 9.6205599e-23)
(0.8381301 -0.13856303 1.5060509e-20)
(0.91391614 -0.17413498 2.0574958e-21)
(0.97725762 -0.19343305 0)
(1.0350052 -0.18453427 -9.9454142e-21)
(1.0849036 -0.141215 0)
(1.1176336 -0.067962906 0)
(1.1250959 0.0164349 -2.9549422e-20)
(1.1175241 0.073282868 1.2852166e-21)
(1.0885496 0.087758822 2.0882077e-21)
(1.0538384 0.073848143 -1.2886968e-20)
(1.0273431 0.046963764 2.8225366e-20)
(1.0172898 0.019124029 1.6898005e-20)
(1.0198284 -0.0039565145 1.3716647e-20)
(1.0290281 -0.019798959 4.6117655e-21)
(1.040599 -0.028848005 -1.1150011e-20)
(1.0519069 -0.031919546 2.3787175e-21)
(1.0612268 -0.030616125 2.0312137e-21)
(1.067922 -0.026725364 2.5857597e-21)
(1.071974 -0.021578661 6.2832608e-22)
(1.0737267 -0.016142051 1.0283928e-21)
(1.0736599 -0.011009999 -1.4755991e-21)
(1.0722385 -0.0064981345 -2.3529607e-21)
(1.0698543 -0.0027428984 -2.6338368e-22)
(1.0668387 0.00020968226 -2.7462381e-21)
(1.0634599 0.0023895594 -1.5389036e-21)
(1.0599297 0.0038284959 -7.173055e-22)
(1.0564577 0.0046115205 -1.0666433e-21)
(1.0531626 0.0047970815 2.1587634e-21)
(1.0502468 0.0044602626 -5.6432851e-21)
(1.0477277 0.0037027661 -8.7913182e-22)
(1.0458893 0.0024413464 -1.0783677e-21)
(1.0445257 0.001009531 0)
(0.63912863 0.12889955 -1.5567716e-20)
(0.62994643 0.17970631 -1.9777128e-22)
(0.62335211 0.13438392 2.3810487e-20)
(0.6092854 0.047198079 3.200252e-20)
(0.63300752 -0.052028602 1.093584e-19)
(0.71706024 -0.11548738 4.9524827e-20)
(0.815383 -0.15059791 -2.1769225e-21)
(0.89403949 -0.1828211 -2.9314759e-20)
(0.95613033 -0.20070542 -7.0068941e-21)
(1.0082783 -0.18906928 -7.6574787e-20)
(1.0503729 -0.14183423 -4.1294345e-21)
(1.0733481 -0.059577419 0)
(1.0683808 0.033336694 0)
(1.0640255 0.092123461 1.4278558e-20)
(1.0623105 0.10690409 1.4073643e-21)
(1.0444527 0.09164163 1.8577012e-20)