/*--------------------------------*- C++ -*----------------------------------*\
  =========                 |
  \\      /  F ield         | OpenFOAM: The Open Source CFD Toolbox
   \\    /   O peration     | Website:  https://openfoam.org
    \\  /    A nd           | Version:  8
     \\/     M anipulation  |
\*---------------------------------------------------------------------------*/
FoamFile
{
    version     2.0;
    format      ascii;
    class       volVectorField;
    location    "100.9663773";
    object      U_0;
}
// * * * * * * * * * * * * * * * * * * * * * * * * * * * * * * * * * * * * * //

dimensions      [0 1 -1 0 0 0 0];

internalField   nonuniform List<vector> 
9200
(
(1.031908 -0.00097093496 -8.3835808e-24)
(1.0324776 -0.0030707032 -4.8416556e-22)
(1.0347752 -0.00078192692 0)
(1.0336232 -0.0047923397 2.2366847e-22)
(1.0353477 -0.0024275051 -2.8733906e-22)
(1.0356283 -0.00071532309 0)
(1.035233 -0.0064750218 2.5037254e-23)
(1.0363509 -0.0036973393 -8.6682883e-23)
(1.0360757 -0.002205286 0)
(1.0369498 -0.00063163672 0)
(1.0372799 -0.0078566362 -2.9559363e-22)
(1.0377781 -0.0048744514 1.5266861e-22)
(1.0369514 -0.0033348306 -1.8134281e-22)
(1.0373461 -0.0019590018 -1.4204978e-23)
(1.0378622 -0.00058762289 6.2179761e-25)
(1.0397174 -0.0090869709 -2.6212261e-22)
(1.0395556 -0.0056910511 1.3312311e-22)
(1.0382097 -0.0043670042 -5.0698498e-22)
(1.0381037 -0.002948286 -1.1867318e-22)
(1.038199 -0.0018482365 6.5260961e-23)
(1.0387973 -0.0005531239 8.5484585e-22)
(1.0425312 -0.010032733 1.7194041e-22)
(1.0416384 -0.0062562738 -2.5800855e-22)
(1.039759 -0.0050074662 3.5985525e-22)
(1.0391493 -0.0038706893 -5.751154e-24)
(1.0388571 -0.00278816 -3.5806071e-22)
(1.0390985 -0.001778543 -3.2874934e-22)
(1.0396391 -0.00052918692 -3.5084481e-23)
(1.0457028 -0.010731652 5.8183779e-22)
(1.0439783 -0.0064253232 1.3926277e-22)
(1.041498 -0.0053670264 -1.7859862e-22)
(1.040395 -0.0044454707 2.2173998e-22)
(1.0397641 -0.0036953071 6.3223836e-22)
(1.0396913 -0.002695536 2.8164653e-22)
(1.0399168 -0.0017468836 6.7099627e-22)
(1.0404471 -0.00050990507 -1.0424869e-21)
(1.0492414 -0.011133341 -5.6473029e-22)
(1.0465317 -0.0061909986 -3.3670952e-22)
(1.043349 -0.0053584538 2.6394055e-22)
(1.0417646 -0.0047737957 -2.5810202e-22)
(1.0408176 -0.0042866189 4.636884e-22)
(1.0404915 -0.0036214975 1.3285956e-21)
(1.0404615 -0.0026605615 -8.3050875e-22)
(1.0407173 -0.0017323186 1.2087321e-21)
(1.0412161 -0.00049244009 2.4005501e-21)
(1.0531711 -0.011228914 8.0248096e-22)
(1.0492749 -0.0054434935 8.7528708e-22)
(1.0452156 -0.004909986 -8.6346319e-23)
(1.043117 -0.0047318922 -9.4142211e-22)
(1.0419015 -0.0046783795 7.7982239e-24)
(1.0413748 -0.0042739533 7.2953271e-22)
(1.0411878 -0.0036254817 -5.2089199e-22)
(1.0412445 -0.0026502395 -1.1099391e-21)
(1.0414883 -0.0017239171 -5.8004186e-22)
(1.0419513 -0.00047454741 -1.599177e-22)
(1.0575407 -0.011030559 -3.4559634e-22)
(1.0522379 -0.0041260348 9.2836588e-22)
(1.0470602 -0.0039239263 -5.1644158e-22)
(1.0443103 -0.0042622268 6.8793021e-23)
(1.042849 -0.0047549909 -1.5759962e-21)
(1.0422088 -0.0047922894 2.0231747e-21)
(1.0419719 -0.0043640627 2.2030897e-22)
(1.0419482 -0.0036632444 -2.1665718e-21)
(1.0420122 -0.0026470481 1.1198022e-21)
(1.0422347 -0.0017131443 -2.2421874e-21)
(1.0426512 -0.00045501876 4.2659499e-22)
(1.0623964 -0.010508685 -1.6148965e-22)
(1.0554583 -0.0021471382 -1.6457031e-21)
(1.0488786 -0.0023495294 -3.9484062e-22)
(1.0453203 -0.0033316642 0)
(1.04353 -0.0045098581 5.1657502e-23)
(1.0428781 -0.0050402786 -8.6927236e-22)
(1.0426962 -0.0050450356 4.6772859e-22)
(1.04271 -0.0044986464 1.1493946e-21)
(1.042725 -0.0037035103 -5.3362899e-22)
(1.042775 -0.0026358011 1.4542188e-21)
(1.0429515 -0.0016948521 1.0361265e-21)
(1.0433141 -0.00043330306 -2.2431781e-22)
(1.0677721 -0.0096522559 -2.0288268e-23)
(1.0589428 0.0005423851 6.4825601e-22)
(1.0506538 -0.000104882 0)
(1.0461047 -0.0018950616 0)
(1.0439104 -0.0039522601 6.7223602e-22)
(1.0433343 -0.0051739286 -1.8573447e-21)
(1.0432692 -0.0056054182 1.7387698e-21)
(1.043434 -0.0053582971 -1.1904082e-21)
(1.043518 -0.0046168174 -6.1213625e-23)
(1.0435228 -0.0037215518 5.4266207e-24)
(1.0435152 -0.0026079596 -2.0245646e-21)
(1.0436347 -0.001665948 2.377527e-21)
(1.0439371 -0.0004092508 -4.3276391e-21)
(1.0737005 -0.0084479463 5.7487369e-22)
(1.0626975 0.0040285901 -7.6805484e-23)
(1.0523194 0.0028991748 8.9775696e-22)
(1.0465768 0.00013142604 -1.1477471e-21)
(1.043916 -0.0030651851 1.0989765e-21)
(1.0434172 -0.0051509454 -6.366985e-22)
(1.0436309 -0.0061203164 -2.9131411e-22)
(1.0440412 -0.0061911924 5.1561496e-23)
(1.0443212 -0.0056106389 -8.4311007e-22)
(1.0443816 -0.0046842424 -7.3988106e-22)
(1.044308 -0.0037044706 -5.1890272e-22)
(1.0442249 -0.002558944 -1.4116618e-21)
(1.0442794 -0.0016262214 -9.874105e-22)
(1.0445188 -0.00038215131 1.2370464e-21)
(1.0802223 -0.0068686123 -2.2830137e-21)
(1.0667459 0.0083763658 -2.3289147e-21)
(1.0538218 0.0067638893 -5.7321306e-22)
(1.0466124 0.0028162947 2.1249202e-22)
(1.0434171 -0.001794975 -1.5726692e-22)
(1.043056 -0.0050016418 9.0484038e-22)
(1.0436956 -0.0066399604 -3.1297122e-22)
(1.0444959 -0.007100984 4.0706831e-22)
(1.0450772 -0.0066397182 -2.8685292e-22)
(1.0453028 -0.0057548815 4.5555665e-23)
(1.0452412 -0.0046821312 3.243032e-23)
(1.0450656 -0.0036497329 -1.2169585e-22)
(1.0448977 -0.0024885781 2.1754172e-21)
(1.0448823 -0.0015757011 -1.1460073e-21)
(1.0450574 -0.00035093425 9.9985787e-22)
(1.0874544 -0.0049797386 -2.5563499e-22)
(1.0711348 0.013639614 -5.5106893e-23)
(1.0551312 0.011579792 -1.5782607e-21)
(1.0461229 0.0062348393 1.5991083e-21)
(1.0422724 -0.00011985226 -1.5120291e-21)
(1.0421169 -0.0047346973 1.8244457e-21)
(1.0433651 -0.0072172064 -2.4627849e-21)
(1.0447413 -0.0081267779 1.2505324e-22)
(1.0457709 -0.0078174847 4.113344e-22)
(1.0462447 -0.0068764366 -6.9664528e-22)
(1.0462794 -0.0057703528 3.6874022e-21)
(1.0460675 -0.0046153815 -1.5154453e-21)
(1.0457817 -0.0035612428 -7.4764147e-22)
(1.0455284 -0.002399207 -2.4339712e-22)
(1.0454415 -0.0015135217 2.3583985e-23)
(1.0455508 -0.00031538392 -1.1323064e-21)
(1.0953861 -0.002666879 0)
(1.0759398 0.019872654 2.8378129e-22)
(1.0562233 0.017425733 1.1832452e-21)
(1.0450343 0.010451636 0)
(1.040379 0.0019807104 0)
(1.0404806 -0.0043622686 0)
(1.0425169 -0.0079338639 2.2319164e-22)
(1.044726 -0.0093565747 -1.0544734e-21)
(1.0463642 -0.009179546 1.3149983e-21)
(1.0471974 -0.0081491479 -1.1315205e-21)
(1.0473862 -0.0068926177 2.1112599e-22)
(1.0472014 -0.0056787787 -7.8403952e-22)
(1.046839 -0.0044994587 1.4428182e-22)
(1.0464533 -0.0034459485 8.5452306e-22)
(1.0461159 -0.0022931466 1.5273142e-22)
(1.0459563 -0.0014393788 5.8560659e-22)
(1.0459973 -0.00027570323 0)
(1.1034484 9.0653733e-05 -4.6218367e-22)
(1.0812276 0.027227372 2.3229394e-21)
(1.0570634 0.024362185 6.6570578e-21)
(1.0432676 0.015519188 4.7019251e-21)
(1.037634 0.0045239787 3.6199447e-21)
(1.0380535 -0.0039205597 0)
(1.0410519 -0.0088353761 2.4781378e-21)
(1.0443506 -0.010864503 -5.6255358e-22)
(1.0468187 -0.010804686 -2.8684227e-21)
(1.0481527 -0.0096057489 1.3440426e-21)
(1.0485707 -0.0081357256 6.6009295e-22)
(1.0484334 -0.0067452732 2.2552884e-22)
(1.0480421 -0.0055180488 -2.0241493e-21)
(1.047554 -0.0043513363 2.8192514e-21)
(1.04708 -0.003310452 4.7134118e-22)
(1.0466607 -0.0021714131 4.2848565e-21)
(1.0464261 -0.0013532533 1.583488e-21)
(1.0463954 -0.00023207864 1.4497603e-21)
(1.111326 0.0029445665 -9.6175477e-23)
(1.086701 0.035438439 1.4155972e-21)
(1.0576221 0.032708723 4.7190762e-23)
(1.0407078 0.02148404 4.8239329e-21)
(1.0339316 0.007516431 -5.6813649e-22)
(1.0347345 -0.0034352205 7.6736254e-22)
(1.03889 -0.009991267 -2.4869222e-21)
(1.0435342 -0.012740898 -3.856271e-21)
(1.0470857 -0.012767765 -1.0500545e-21)
(1.0491045 -0.011316565 1.1340158e-21)
(1.0498389 -0.009514296 -2.5959447e-22)
(1.0497819 -0.0078814135 1.7338063e-21)
(1.0493519 -0.0065046934 -1.1596428e-21)
(1.0488007 -0.0053232818 8.7382309e-24)
(1.0482162 -0.0041849082 -8.478302e-23)
(1.0476652 -0.0031579116 -7.2012267e-22)
(1.0471637 -0.0020337802 1.4648732e-21)
(1.0468501 -0.0012544229 -5.5202677e-23)
(1.0467435 -0.00018497631 1.3340685e-21)
(1.1152842 0.0058870572 -8.2162866e-22)
(1.0921082 0.044501402 -4.2651532e-21)
(1.0578173 0.042131009 -1.2633302e-20)
(1.0372276 0.028564271 -3.2289976e-21)
(1.0291372 0.010959846 1.4219248e-21)
(1.0304244 -0.0029436853 3.9802002e-22)
(1.0359478 -0.011460109 5.7142058e-22)
(1.0422147 -0.015076212 2.0041872e-21)
(1.0471408 -0.015178063 -4.0766434e-22)
(1.050063 -0.013366194 -2.6964156e-21)
(1.051226 -0.011087236 2.1856629e-21)
(1.0512669 -0.009079307 -1.3447125e-22)
(1.0507865 -0.0075042562 -6.4800913e-22)
(1.0501426 -0.0062340057 4.7786195e-23)
(1.0494896 -0.0051207135 7.8623567e-23)
(1.0488361 -0.0040073263 -2.6060039e-21)
(1.0482128 -0.0029875918 6.9473413e-22)
(1.0476249 -0.0018788441 -2.4443522e-21)
(1.0472281 -0.0011416057 -6.0265723e-22)
(1.0470407 -0.00013495 -1.3644077e-21)
(1.1122493 0.0093853164 1.7025304e-22)
(1.0954902 0.054837481 -9.4613991e-21)
(1.0568236 0.05291468 4.9367233e-21)
(1.0329148 0.036529941 5.6677963e-21)
(1.0230392 0.014926641 -1.0075643e-21)
(1.0250105 -0.0024735173 -2.8023717e-21)
(1.0321398 -0.013289868 4.840292e-21)
(1.0403379 -0.017963441 5.1668967e-21)
(1.0469693 -0.018152854 -2.3225411e-21)
(1.051055 -0.01585692 0)
(1.0527797 -0.012914604 -1.5093523e-21)
(1.0529389 -0.010365066 6.6059998e-22)
(1.0523636 -0.0084803629 1.9689352e-21)
(1.0515889 -0.0071084185 -1.7273785e-21)
(1.0508328 -0.0059799205 8.3870884e-22)
(1.0501325 -0.0049239776 -2.1528846e-21)
(1.0494244 -0.003817303 -5.6771519e-23)
(1.0487251 -0.0027955911 9.1606657e-22)
(1.0480437 -0.0017043764 -1.4764832e-21)
(1.0475588 -0.0010142939 -1.3596849e-22)
(1.0472869 -8.1921729e-05 -1.2334284e-21)
(1.0952837 0.014821584 -1.8118904e-21)
(1.0831244 0.065808852 -1.1325746e-20)
(1.0514334 0.065509246 5.5739749e-21)
(1.0274292 0.045497663 -1.0796704e-20)
(1.0157634 0.019359616 -7.9913558e-21)
(1.0183342 -0.0020836342 9.2827873e-22)
(1.0273854 -0.015534623 0)
(1.037851 -0.021492139 2.6333149e-21)
(1.0465581 -0.021808398 5.2694598e-22)
(1.0521149 -0.018900664 -2.8892181e-21)
(1.054569 -0.015069512 -6.598074e-22)
(1.0548667 -0.011758509 3.8036591e-22)
(1.0541342 -0.0094222398 -1.2386859e-22)
(1.053144 -0.007885854 -6.4867961e-22)
(1.0522401 -0.0067737101 1.2681756e-21)
(1.0514683 -0.0057667034 -1.2390762e-21)
(1.0507503 -0.0047312407 2.8459302e-22)
(1.0499872 -0.0036079573 -1.7740063e-21)
(1.049203 -0.0025774656 -3.2251376e-22)
(1.0484189 -0.0015080908 -6.6674484e-23)
(1.0478402 -0.00087280597 -7.34438e-22)
(1.0474816 -2.5892832e-05 0)
(1.065222 0.021992249 -8.6653855e-22)
(1.0524378 0.076847276 7.0346059e-21)
(1.0381104 0.078433039 -9.4794689e-22)
(1.0195539 0.055432741 -1.3844185e-20)
(1.007339 0.024175239 -7.101506e-21)
(1.0102545 -0.0017565775 3.4495147e-21)
(1.021601 -0.018260601 -2.7901882e-21)
(1.0347069 -0.025743774 3.8757775e-21)
(1.0458935 -0.026258495 1.2804343e-21)
(1.053281 -0.022615779 -5.180895e-23)
(1.0566778 -0.01763594 2.0268568e-23)
(1.057146 -0.013285461 -4.2991069e-22)
(1.0561659 -0.010306268 1.660352e-22)
(1.0548437 -0.0085249544 1.8251812e-22)
(1.0536946 -0.0074264787 -1.5632449e-21)
(1.0528204 -0.006541435 -1.929286e-21)
(1.0520872 -0.0055909167 9.3470073e-23)
(1.0513572 -0.0045284307 3.2107856e-21)
(1.0505276 -0.0033708326 1.3616195e-22)
(1.0496452 -0.0023300498 -9.6411055e-22)
(1.0487489 -0.0012887457 0)
(1.048071 -0.00071752507 1.5485002e-21)
(1.0476231 3.3635607e-05 3.714984e-23)
(1.0272283 0.030484979 5.7774214e-21)
(1.0110222 0.087089491 2.0006864e-20)
(1.0135442 0.089841373 8.3902014e-21)
(1.0067655 0.064903623 4.282171e-21)
(0.9975524 0.029436077 -1.5056925e-20)
(1.0010717 -0.001603917 0)
(1.0146446 -0.021553953 -7.3347299e-22)
(1.0308613 -0.030790746 3.0760547e-21)
(1.0449584 -0.031610954 3.473262e-22)
(1.0545903 -0.027123727 -2.7986638e-21)
(1.0592016 -0.020709227 -1.1414147e-21)
(1.0598972 -0.01498049 -4.7980703e-22)
(1.0585573 -0.01110473 1.0500065e-21)
(1.0567381 -0.0089667508 -1.3058697e-21)
(1.0552104 -0.007874862 2.4916208e-21)
(1.0541494 -0.0071678499 3.4647501e-21)
(1.0533958 -0.0064033237 -1.3106347e-21)
(1.0527162 -0.0054265635 1.2896348e-21)
(1.0519614 -0.0042996141 -3.8848531e-21)
(1.0510449 -0.0030983993 9.8676153e-22)
(1.0500488 -0.00205078 2.0080857e-21)
(1.0490317 -0.0010459198 -1.5585358e-21)
(1.0482514 -0.00054928903 8.545171e-22)
(1.0477095 9.7549388e-05 3.1614938e-23)
(0.98607186 0.039573513 1.5848698e-21)
(0.96348266 0.096795474 9.5687868e-21)
(0.97795861 0.098789075 -8.0371588e-21)
(0.9866874 0.072676921 -3.04526e-20)
(0.98589049 0.034583129 9.3567207e-21)
(0.99097349 -0.0016027072 -1.5000148e-20)
(1.0065846 -0.025411699 -7.8901416e-22)
(1.0262698 -0.036706859 -4.9497669e-21)
(1.04373 -0.037957847 2.2981486e-21)
(1.0560735 -0.032546865 -2.1785564e-22)
(1.0622402 -0.024395489 -1.5566016e-21)
(1.0632602 -0.016886003 -4.3234317e-22)
(1.061436 -0.011789174 -5.9148065e-22)
(1.0588999 -0.0091343589 -1.0579447e-22)
(1.0568049 -0.0080437641 8.7187412e-22)
(1.0554466 -0.007569235 4.24823e-22)
(1.0546118 -0.0070902172 -2.8156582e-22)
(1.054009 -0.0063138678 2.1000097e-21)
(1.0533717 -0.005245572 0)
(1.0525633 -0.0040320848 3.7386559e-22)
(1.051536 -0.0027839995 1.0650235e-22)
(1.0504105 -0.001737118 -1.8961221e-22)
(1.0492651 -0.00078016177 -5.5135334e-23)
(1.0483828 -0.00036883566 -1.2654884e-21)
(1.0477425 0.00016442007 -4.4753691e-22)
(0.94481609 0.048833837 -9.5060022e-21)
(0.91476502 0.10601658 -6.8838706e-22)
(0.93591389 0.10554883 6.1775541e-21)
(0.95850488 0.077988213 3.3050973e-21)
(0.97086041 0.038834452 2.8551356e-20)
(0.97966061 -0.0018466022 1.0965446e-21)
(0.99786661 -0.029866135 -9.4779424e-22)
(1.0208353 -0.04355403 4.0888763e-22)
(1.0421941 -0.045386012 6.2544456e-22)
(1.0577514 -0.039002389 -2.6128796e-21)
(1.0658938 -0.028811742 -4.611224e-22)
(1.0673886 -0.019057331 2.4677198e-22)
(1.0649555 -0.012330232 -8.728737e-23)
(1.0614291 -0.0089364376 1.5042887e-22)
(1.0584938 -0.0078086522 -5.6767831e-22)
(1.0566584 -0.007671841 -1.1670498e-21)
(1.0556875 -0.0075753375 -9.8580366e-22)
(1.0551435 -0.0071203104 -3.0494366e-21)
(1.0546907 -0.0062282903 -4.5272167e-21)
(1.0540565 -0.0050266783 -3.8951404e-23)
(1.0531586 -0.0037135346 4.2693714e-21)
(1.0519956 -0.002422611 7.0547692e-22)
(1.0507269 -0.0013877201 -1.5183433e-21)
(1.0494468 -0.00049360883 1.217811e-21)
(1.0484651 -0.00017712558 -7.8520624e-22)
(1.0477302 0.00022773608 4.6236343e-23)
(0.90518684 0.057960311 4.5535377e-22)
(0.86782816 0.11481446 2.0142588e-22)
(0.89154242 0.11071053 -1.4089656e-20)
(0.92347645 0.080507508 1.1979132e-20)
(0.95079243 0.04103725 -1.9819394e-20)
(0.96699829 -0.0026140692 1.462935e-20)
(0.98848129 -0.034849496 3.3604594e-21)
(1.0148161 -0.051338925 6.2250911e-21)
(1.0403579 -0.053922753 5.747725e-22)
(1.0596227 -0.046612547 1.4797423e-21)
(1.0702584 -0.034081773 8.66406e-22)
(1.0724475 -0.021560208 2.1894687e-21)
(1.0692844 -0.012705646 -1.6694741e-22)
(1.0644579 -0.0082783865 -6.4755826e-22)
(1.0603412 -0.0070452598 2.2395118e-22)
(1.0577485 -0.0073008168 5.2428852e-22)
(1.0565468 -0.0077387955 -1.9034798e-21)
(1.0560347 -0.0077739037 2.1580255e-21)
(1.0558041 -0.007193281 -2.0268744e-21)
(1.0554495 -0.0061128087 1.9253614e-22)
(1.0547662 -0.0047490032 0)
(1.0537397 -0.0033328928 1.6750505e-21)
(1.0524166 -0.0020115333 3.0364208e-22)
(1.0509933 -0.0010042362 0)
(1.0495741 -0.00018897501 -1.4301452e-21)
(1.0484944 2.2150955e-05 -1.2413981e-22)
(1.0476715 0.00029728158 1.9732519e-22)
(0.86806227 0.066779826 3.5261057e-21)
(0.8242027 0.12330849 5.8749181e-22)
(0.84770918 0.11481515 -5.976669e-21)
(0.88447643 0.080588583 -1.4627379e-22)
(0.92572717 0.040662315 -4.1957912e-21)
(0.95254323 -0.0042338448 -1.5311003e-20)
(0.9780469 -0.040475948 -5.0379519e-22)
(1.0085453 -0.059919641 -3.4115855e-21)
(1.0381074 -0.063728293 -1.9698905e-21)
(1.0617078 -0.055417297 -1.7934437e-21)
(1.0754246 -0.040333911 7.2798137e-21)
(1.0786096 -0.024473042 2.7436732e-21)
(1.0746043 -0.012887779 8.7766391e-22)
(1.0681201 -0.0070614728 -2.6541404e-23)
(1.0624261 -0.0056115932 -1.4739711e-21)
(1.0587607 -0.006356727 4.1978776e-22)
(1.0570861 -0.0075243728 -2.7584241e-21)
(1.0565907 -0.0081672251 6.5411539e-21)
(1.0566039 -0.0080905006 2.2281737e-21)
(1.0566154 -0.0072562698 6.7328912e-22)
(1.0562821 -0.0059330867 2.6045316e-21)
(1.05549 -0.0043923577 -4.0254125e-22)
(1.054296 -0.0028833032 -1.6476949e-22)
(1.0527922 -0.0015502663 0)
(1.0512066 -0.00058865651 0)
(1.0496464 0.00013253952 1.2391133e-22)
(1.0484698 0.00023183697 -4.8771222e-22)
(1.0475652 0.00036713908 -1.5353181e-22)
(0.83387205 0.075156364 0)
(0.78450358 0.1315223 1.4358674e-21)
(0.80634658 0.11807883 8.2507337e-22)
(0.8444432 0.078771247 1.6579475e-21)
(0.89705654 0.037619217 1.1301861e-20)
(0.93593374 -0.0074379757 7.1307359e-22)
(0.96672617 -0.046732396 -6.5852008e-21)
(1.0015245 -0.069250689 -3.7726933e-21)
(1.035665 -0.074570337 1.7624331e-21)
(1.064012 -0.065662177 -1.693842e-21)
(1.0814297 -0.047705958 -6.7639532e-22)
(1.0860555 -0.027879777 -2.122274e-22)
(1.0811091 -0.012853832 4.578749e-21)
(1.072552 -0.0051662667 -4.8258958e-22)
(1.0648068 -0.003351499 1.3485276e-22)
(1.0596992 -0.0046714419 -2.1105212e-21)
(1.0572787 -0.0067658116 6.8901633e-22)
(1.0567519 -0.0082506469 -2.0952123e-21)
(1.0569851 -0.0088545501 5.2690408e-21)
(1.0574386 -0.0084347059 -1.3001306e-21)
(1.0575758 -0.0072542414 2.2575359e-21)
(1.0571731 -0.0056544652 1.4480254e-21)
(1.0562115 -0.003942497 -1.4075368e-22)
(1.0548152 -0.0023625391 -4.007154e-21)
(1.0531155 -0.001040586 -1.2166858e-21)
(1.0513651 -0.00014223652 2.9001686e-22)
(1.049667 0.00047068335 8.2775043e-22)
(1.0483941 0.00044777643 -1.2553459e-22)
(1.0474163 0.0004365512 -2.2632982e-22)
(0.80280871 0.082948515 -1.0202372e-20)
(0.74920625 0.13928601 0)
(0.768703 0.12060968 0)
(0.80563967 0.075664121 0)
(0.86644047 0.032223718 -1.557932e-21)
(0.91731665 -0.012542744 1.0416204e-20)
(0.95467675 -0.053642143 -2.0490063e-21)
(0.99360226 -0.079373347 -3.6469034e-21)
(1.0328523 -0.086282921 -3.3233332e-21)
(1.0661656 -0.077193004 1.4024148e-20)
(1.0884219 -0.056438298 -2.7762421e-21)
(1.0950297 -0.031877542 1.7616241e-21)
(1.0890108 -0.012553081 -2.4600548e-21)
(1.0779 -0.0024655811 1.4600266e-21)
(1.0675379 -8.7325019e-05 3.2231486e-21)
(1.0605319 -0.0020632868 4.5824521e-22)
(1.0570949 -0.0053261041 -2.8647422e-21)
(1.056359 -0.0079618092 -2.3637729e-21)
(1.0568633 -0.0094132187 1.2520018e-21)
(1.0578001 -0.0096222686 -1.3602411e-21)
(1.058537 -0.0087150848 -2.75181e-21)
(1.0586626 -0.0071289693 4.1007677e-22)
(1.0580972 -0.0052508892 3.3546359e-21)
(1.0569112 -0.0033931727 -1.8572435e-21)
(1.0552856 -0.0017714203 -2.7599751e-22)
(1.0533807 -0.00048632869 -5.3564491e-22)
(1.0514646 0.00033025682 9.3007262e-22)
(1.0496366 0.00082114969 5.325014e-22)
(1.0482703 0.00067085951 2.2988544e-23)
(1.0472263 0.00050549369 -3.6851126e-22)
(0.77244987 0.090659004 -1.3466997e-22)
(0.71862226 0.14653664 5.4365961e-22)
(0.73553081 0.12260286 0)
(0.7695604 0.071818347 0)
(0.83532741 0.024977712 0)
(0.89713178 -0.01952393 0)
(0.94193345 -0.061361287 0)
(0.98503211 -0.090099784 9.8027602e-22)
(1.0293404 -0.09894474 -1.8359748e-21)
(1.0680477 -0.089805471 -2.0822653e-20)
(1.0957354 -0.066419162 -8.8616927e-22)
(1.1056305 -0.036720575 -7.0773258e-21)
(1.0986133 -0.012020951 1.112067e-20)
(1.0843255 0.0012399154 2.534505e-22)
(1.0706803 0.0043678898 -3.8160144e-22)
(1.0612303 0.0016500928 1.8754467e-21)
(1.0564381 -0.0030423587 -2.9065762e-21)
(1.0553003 -0.0071738083 1.5371398e-21)
(1.0561283 -0.009749236 2.5854496e-21)
(1.0576186 -0.01079847 1.5409585e-21)
(1.0590516 -0.010329264 3.7944729e-22)
(1.0598595 -0.0088396858 2.3315127e-21)
(1.0598352 -0.006835624 8.6793733e-23)
(1.0590237 -0.0047089234 -1.3104448e-21)
(1.0575693 -0.0027438734 1.0348038e-21)
(1.0556968 -0.0011138177 3.0883117e-21)
(1.0535835 0.00010661612 7.6309857e-22)
(1.0515043 0.00082356809 -4.0122622e-22)
(1.0495546 0.0011817186 5.8696006e-23)
(1.048101 0.0008994723 3.719179e-22)
(1.046997 0.00057480361 3.0082083e-22)
(0.74203867 0.098393362 4.9267614e-21)
(0.69106009 0.15352835 1.2803688e-21)
(0.70712444 0.12414195 -1.9489003e-20)
(0.73699819 0.067617934 -1.9882657e-20)
(0.80491152 0.01642703 0)
(0.87586894 -0.02814895 0)
(0.92851881 -0.069972458 -1.452339e-21)
(0.97602915 -0.10134057 1.2140009e-21)
(1.0252775 -0.11244819 3.8939259e-21)
(1.0697977 -0.10361644 -1.8516446e-20)
(1.1031724 -0.077690539 2.9472752e-21)
(1.1171342 -0.042268558 2.1450897e-20)
(1.1101033 -0.011147855 -1.8652354e-21)
(1.0920198 0.005957362 1.9563743e-22)
(1.074299 0.010209524 -2.4136846e-21)
(1.0617689 0.0066519222 -9.5621753e-23)
(1.0552217 0.00023187373 8.3964625e-21)
(1.0534738 -0.0057604197 -3.9475243e-22)
(1.0545999 -0.0098253484 -4.2245973e-21)
(1.0567651 -0.011934415 9.7123465e-21)
(1.0590233 -0.01210203 -1.3357709e-22)
(1.0606612 -0.010825337 -2.5579079e-21)
(1.0613416 -0.0087349927 4.9997659e-21)
(1.0610458 -0.0063500282 2.7180972e-21)
(1.0599208 -0.0040258887 -1.9293963e-23)
(1.058169 -0.0019984372 1.8402188e-21)
(1.0560403 -0.00039715766 9.1144936e-22)
(1.0537213 0.00073313864 5.2676302e-23)
(1.0514859 0.0013335008 -2.7340312e-22)
(1.0494232 0.0015481722 -2.3130642e-22)
(1.0478892 0.0011303654 5.5347013e-22)
(1.0467311 0.00064430054 4.4054654e-23)
(0.7139645 0.10554534 -2.6698863e-22)
(0.66684325 0.16031761 -1.0114844e-22)
(0.68154422 0.1259962 3.9640282e-20)
(0.70833472 0.063277374 3.9472363e-20)
(0.7760411 0.0071130092 0)
(0.8540487 -0.038078958 0)
(0.91453027 -0.07944532 0)
(0.9666377 -0.11304327 -2.1037843e-21)
(1.0207334 -0.12675587 -1.936415e-20)
(1.0716549 -0.11876015 -2.5402515e-20)
(1.1114467 -0.09059753 4.2544214e-21)
(1.1298266 -0.048833032 5.1918658e-21)
(1.1227974 -0.01003437 -3.3538881e-20)
(1.1011571 0.012036962 1.0195193e-20)
(1.0784393 0.017586046 -2.2148852e-21)
(1.0621193 0.013121756 0)
(1.0533548 0.0046414186 2.7595368e-21)
(1.0507751 -0.0036261171 -2.415489e-21)
(1.0521315 -0.0095865407 1.546528e-21)
(1.0550983 -0.013032247 5.3920881e-22)
(1.0583554 -0.014063491 -4.7557217e-21)
(1.0609837 -0.013121505 -3.4215087e-22)
(1.062527 -0.011004998 -4.0320982e-21)
(1.0629091 -0.0083632942 -4.4224118e-21)
(1.0622455 -0.0056658228 1.0448956e-21)
(1.0607612 -0.0032060976 5.5830658e-22)
(1.0586949 -0.0011667854 -3.4096312e-22)
(1.0563105 0.00036993989 1.2046486e-24)
(1.0537929 0.0013862101 -2.1013598e-22)
(1.0514109 0.0018544108 -4.4658208e-22)
(1.0492447 0.0019174236 2.9679322e-22)
(1.0476389 0.0013601617 -2.1332206e-21)
(1.0464311 0.00071214253 9.8176888e-22)
(0.68921325 0.11184329 1.7169767e-21)
(0.64755541 0.16644467 -4.0910117e-22)
(0.6589336 0.12847338 8.7424168e-20)
(0.6815494 0.059837817 9.3896703e-20)
(0.74929337 -0.0027467866 -1.4216429e-20)
(0.8322742 -0.049018528 -9.7647671e-22)
(0.90021956 -0.08966478 -2.0660177e-21)
(0.95694428 -0.12503015 2.4481531e-21)
(1.0155051 -0.14166144 7.6422575e-21)
(1.0728366 -0.13500279 5.9675492e-20)
(1.1202919 -0.10493024 -3.7644135e-20)
(1.1444232 -0.056692708 -5.9045582e-20)
(1.1374105 -0.0088074642 1.48574e-21)
(1.1113412 0.019409999 4.1422665e-21)
(1.0832126 0.026905456 -2.2626681e-21)
(1.062238 0.021215595 1.3463657e-21)
(1.0507435 0.010322833 1.4864209e-21)
(1.0470805 -0.00067632443 2.8239373e-21)
(1.0485959 -0.0089813292 -9.0473549e-22)
(1.0524629 -0.014093639 -6.8009875e-22)
(1.0568978 -0.016218029 8.8823666e-22)
(1.0607214 -0.015767846 -7.8363069e-21)
(1.0633177 -0.013695289 4.2663254e-22)
(1.0645407 -0.010814577 6.737766e-22)
(1.0644899 -0.0077144122 -5.742619e-21)
(1.063391 -0.0047896821 -1.7095828e-21)
(1.0615216 -0.002261798 -1.3262058e-21)
(1.0591361 -0.00026079871 -8.4909694e-22)
(1.0565028 0.0011774176 -5.4889125e-22)
(1.0537979 0.0020582888 -9.0966327e-23)
(1.0512814 0.0023816915 8.6085897e-23)
(1.0490223 0.002286099 -6.9641934e-23)
(1.047353 0.0015873028 1.0592438e-21)
(1.0461018 0.00077720914 -2.2006151e-21)
(0.66861166 0.11707633 -3.3851029e-21)
(0.63351643 0.17166841 2.3299252e-22)
(0.64098751 0.13088496 -1.2287802e-19)
(0.6568757 0.057544957 -5.9974085e-20)
(0.72224836 -0.011928554 7.1153955e-20)
(0.81102477 -0.060929812 3.5883542e-20)
(0.88579107 -0.10053706 1.2216176e-21)
(0.94724719 -0.13719852 0)
(1.0092737 -0.156522 1.1718703e-20)
(1.0719253 -0.15118144 1.0029802e-19)
(1.1260547 -0.11948011 1.8918263e-20)
(1.1564624 -0.065464951 2.8022158e-20)
(1.1541491 -0.007447154 0)
(1.1231643 0.028009907 4.2860857e-21)
(1.0884504 0.03799851 3.6211151e-21)
(1.0620916 0.031273834 -2.9932414e-21)
(1.0472721 0.01738206 -1.4412583e-20)
(1.0422625 0.0031777301 0)
(1.0438615 -0.0079702987 2.5672546e-21)
(1.0487206 -0.015134722 2.3771172e-21)
(1.0545203 -0.018605658 -8.186423e-21)
(1.0597756 -0.018818994 1.7750185e-22)
(1.0636379 -0.016870258 0)
(1.0658848 -0.013764153 -5.942729e-21)
(1.0665982 -0.010241804 1.3328419e-21)
(1.0660197 -0.0067982205 -5.4995619e-23)
(1.0644477 -0.0037378264 -2.2944825e-21)
(1.0621832 -0.0012108497 1.4151126e-21)
(1.0594859 0.0007065746 1.1746116e-22)
(1.0566155 0.00201578 -6.2014197e-22)
(1.0537377 0.0027424126 1.447145e-22)
(1.0511 0.0029103451 -1.3110619e-23)
(1.0487589 0.002651757 0)
(1.0470349 0.0018101217 -4.3202166e-23)
(1.0457462 0.0008395306 -7.7970178e-22)
(0.653068 0.12115438 -5.631068e-21)
(0.62485111 0.17584407 2.3207062e-21)
(0.62829172 0.13330413 -1.3978745e-19)
(0.63645037 0.055594114 -2.5226797e-20)
(0.69486102 -0.020496498 2.5980234e-20)
(0.78765392 -0.072489447 6.9453882e-21)
(0.87122036 -0.11225747 1.8010325e-20)
(0.93688089 -0.14906322 3.3758441e-21)
(1.000729 -0.17047123 0)
(1.0658858 -0.1659612 -4.2582837e-20)
(1.124272 -0.13209215 5.5266054e-20)
(1.1590088 -0.073815008 -3.5640626e-21)
(1.166405 -0.0057626073 2.5981989e-20)
(1.1358623 0.038171655 -1.7207841e-20)
(1.0943638 0.050918159 7.7691848e-21)
(1.0616599 0.043171448 5.4378661e-21)
(1.0428015 0.026023365 -3.6874371e-20)
(1.0361747 0.0079885559 -1.3797613e-20)
(1.0377966 -0.0065195425 9.2968166e-21)
(1.0437405 -0.016163694 -1.3171087e-20)
(1.0510996 -0.021268416 9.2967851e-21)
(1.0580305 -0.022336703 -4.2344561e-21)
(1.0634039 -0.020596566 0)
(1.0668876 -0.017287319 -1.6914721e-21)
(1.0685347 -0.013311081 3.0807547e-22)
(1.0686072 -0.009301858 2.5404786e-21)
(1.0674471 -0.0056386246 1.3016996e-21)
(1.0653873 -0.0025348524 6.5675488e-22)
(1.0627346 -7.0867037e-05 8.3504896e-22)
(1.0597399 0.0017206651 0)
(1.0566492 0.0028748219 6.6724848e-22)
(1.0536148 0.0034319412 1.357603e-22)
(1.0508699 0.0034363297 2.4423019e-21)
(1.0484582 0.0030116438 -1.0760876e-21)
(1.0466877 0.0020277247 4.5900637e-23)
(1.0453679 0.00089915781 2.9481448e-21)
(0.64293711 0.1240865 7.2786495e-21)
(0.62124213 0.17890424 -9.2055814e-23)
(0.6211841 0.13569874 4.9437367e-20)
(0.62115005 0.054432198 5.2327974e-22)
(0.66964903 -0.029220387 -1.3885066e-19)
(0.76180688 -0.084306055 -6.6956783e-20)
(0.853562 -0.1231597 -1.0569437e-21)
(0.92538672 -0.16071505 9.9786538e-21)
(0.98896086 -0.18251035 4.7132754e-21)
(1.0528249 -0.17770716 4.5122663e-20)
(1.1102941 -0.14166881 -2.2173809e-21)
(1.1492126 -0.078181022 -3.4500609e-20)
(1.1641482 -0.0019413507 -6.3110545e-22)
(1.1431365 0.051030899 -2.5836304e-20)
(1.0991331 0.066453082 7.6777031e-21)
(1.0608852 0.057007808 -7.9719935e-21)
(1.0373807 0.036229303 1.6373051e-20)
(1.0286395 0.013818789 1.6321064e-20)
(1.0302627 -0.0046143428 -1.4620806e-20)
(1.0373988 -0.017205428 -3.6137731e-21)
(1.0465252 -0.024262715 5.7310459e-21)
(1.0553883 -0.026394484 -9.1155409e-21)
(1.0625443 -0.024962105 5.4394381e-21)
(1.0675014 -0.021463327 0)
(1.0702679 -0.017000947 6.2427735e-21)
(1.0711349 -0.012360134 6.0048463e-21)
(1.0704937 -0.0080303315 -1.5908552e-21)
(1.0687321 -0.0042699048 3.6901576e-21)
(1.0661916 -0.0012070247 1.6657255e-22)
(1.0631684 0.0011381166 -8.7033203e-22)
(1.0598966 0.0027677537 -1.9248982e-22)
(1.0566057 0.0037450484 -1.4530679e-21)
(1.0534323 0.0041206793 -1.1941001e-22)
(1.0505947 0.0039558428 2.7807341e-21)
(1.0481235 0.0033639906 -4.2854297e-22)
(1.0463148 0.0022392656 -1.2006007e-22)
(1.0449698 0.0009561551 1.1713703e-21)
(0.63832034 0.12593168 9.3215075e-23)
(0.62227181 0.18078771 -2.1177245e-21)
(0.61951705 0.13786937 7.3564633e-20)
(0.61181587 0.054281137 2.9713333e-20)
(0.64741802 -0.03733042 -1.7294773e-22)
(0.73569597 -0.097173684 1.7714149e-23)
(0.83250162 -0.13425772 1.5720258e-20)
(0.90963864 -0.17045208 1.9089134e-21)
(0.97388762 -0.19219044 0)
(1.0327823 -0.18629799 -1.0172218e-20)
(1.0847169 -0.14703509 0)
(1.1207694 -0.077170221 0)
(1.131915 0.0062261657 -2.9182864e-20)
(1.1255571 0.066673902 1.5550512e-21)
(1.0945205 0.084646129 3.0856653e-21)
(1.0586817 0.073342421 -1.2135589e-20)
(1.0309345 0.047947035 2.7248517e-20)
(1.0196139 0.020752375 1.7346104e-20)
(1.0210952 -0.0022546577 1.3899538e-20)
(1.0295796 -0.018284858 4.6891229e-21)
(1.0406932 -0.027638993 -1.1112678e-20)
(1.0517601 -0.031068604 2.585616e-21)
(1.0609924 -0.030058956 2.0150776e-21)
(1.0676868 -0.026387669 2.481371e-21)
(1.0717854 -0.021391012 6.1868445e-22)
(1.073597 -0.016045296 1.0385951e-21)
(1.0735833 -0.01096296 -1.4748876e-21)
(1.072203 -0.0064755389 -2.3672248e-21)
(1.0698472 -0.0027308218 -2.6440032e-22)
(1.0668499 0.00021791518 -2.7599311e-21)
(1.0634819 0.002396686 -1.5431818e-21)
(1.0599575 0.0038354078 -7.1924544e-22)
(1.0564883 0.004618284 -1.0683573e-21)
(1.0531941 0.0048033134 2.1654261e-21)
(1.0502782 0.0044656514 -5.659606e-21)
(1.0477585 0.0037068951 -8.8152427e-22)
(1.0459195 0.0024439991 -1.080882e-21)
(1.0445553 0.0010104933 0)
(0.63830501 0.1264855 -1.5298034e-20)
(0.6286374 0.18144054 -2.0205656e-22)
(0.62309869 0.13982849 2.3157621e-20)
(0.60845143 0.055252185 3.1858747e-20)
(0.62877336 -0.044411245 1.0958724e-19)
(0.71010561 -0.11048903 5.0832407e-20)
(0.80937915 -0.14654544 -1.945375e-21)
(0.8899121 -0.17938174 -3.0136027e-20)
(0.9534074 -0.19966595 -6.8280612e-21)
(1.0072149 -0.19143586 -8.0277502e-20)
(1.0514957 -0.14877319 -4.5229474e-21)
(1.0787925 -0.070596199 0)
(1.0782334 0.021723955 0)
(1.0734116 0.085019741 1.6366283e-20)
(1.0695636 0.10386709 -2.8839977e-21)
(1.0500719 0.091337953 1.7101891e-20)