/*--------------------------------*- C++ -*----------------------------------*\
  =========                 |
  \\      /  F ield         | OpenFOAM: The Open Source CFD Toolbox
   \\    /   O peration     | Website:  https://openfoam.org
    \\  /    A nd           | Version:  8
     \\/     M anipulation  |
\*---------------------------------------------------------------------------*/
FoamFile
{
    version     2.0;
    format      ascii;
    class       volVectorField;
    location    "100.9663773";
    object      UMean;
}
// * * * * * * * * * * * * * * * * * * * * * * * * * * * * * * * * * * * * * //

dimensions      [0 1 -1 0 0 0 0];

internalField   nonuniform List<vector> 
9200
(
(1.0066259 -0.00080945696 -2.1376243e-24)
(1.0066596 -0.0024451473 -9.4001725e-22)
(1.0090739 -0.00083385584 0)
(1.006824 -0.0038805061 4.7961024e-22)
(1.0090867 -0.0025339572 -7.4976929e-22)
(1.0101421 -0.0008499037 0)
(1.0070386 -0.0052768245 4.9063129e-23)
(1.009226 -0.0040112447 -6.1478726e-23)
(1.0101456 -0.0025964391 0)
(1.0117803 -0.00087359606 0)
(1.0073242 -0.0065067777 -8.8984607e-22)
(1.009406 -0.0054656012 -4.3728345e-22)
(1.0102735 -0.0041030563 -4.2801925e-22)
(1.011774 -0.0026942707 -2.8619899e-23)
(1.0131242 -0.00089405995 3.2487337e-25)
(1.00764 -0.0076649406 -8.2415027e-22)
(1.0096418 -0.0067357402 1.0482918e-22)
(1.0104367 -0.0055958924 -1.353163e-21)
(1.0118878 -0.0042496696 -4.9844755e-22)
(1.0131104 -0.0027842214 3.6138428e-23)
(1.014618 -0.00091788495 1.4030336e-21)
(1.0079847 -0.0087015869 -6.8529325e-22)
(1.0099034 -0.0079380521 -9.1064553e-22)
(1.0106512 -0.0068948092 8.3553849e-22)
(1.0120296 -0.0058079899 4.0537899e-23)
(1.0132132 -0.0043850116 -6.1980914e-22)
(1.0146018 -0.0028932127 -6.1175294e-22)
(1.0160158 -0.00093837067 -8.7749975e-23)
(1.0083407 -0.0096497483 -1.9503543e-22)
(1.0101822 -0.0090093339 -5.4079768e-22)
(1.0108855 -0.008125677 -8.4224822e-22)
(1.0122141 -0.007161678 1.0012943e-22)
(1.0133386 -0.0060036983 1.3643048e-21)
(1.0146993 -0.0045514544 6.1278203e-22)
(1.0159986 -0.0029945384 9.4493405e-22)
(1.0174734 -0.00095903188 -1.5221283e-21)
(1.0087022 -0.010502934 7.8126386e-22)
(1.0104679 -0.0099889928 -7.5169492e-22)
(1.0111317 -0.0092205937 9.9939246e-23)
(1.0124114 -0.0084518713 -4.8904327e-22)
(1.0134995 -0.0074090204 2.2939668e-22)
(1.0148167 -0.006247401 2.3140055e-21)
(1.0160925 -0.0047065027 -7.8905045e-22)
(1.0174622 -0.0031027121 1.6780145e-21)
(1.0188747 -0.00097545844 3.4095426e-21)
(1.0090611 -0.011274353 -5.2988972e-22)
(1.0107555 -0.010865927 5.1137395e-22)
(1.0113786 -0.01021997 -3.0222994e-24)
(1.0126121 -0.0096012616 -3.624097e-22)
(1.0136657 -0.0087539478 1.4172268e-22)
(1.0149624 -0.0077233324 3.8779395e-22)
(1.0162044 -0.0064756387 -8.5365201e-22)
(1.0175616 -0.0048738452 -1.6538661e-21)
(1.0188717 -0.0031992938 -9.0387423e-22)
(1.0203015 -0.000989321 -2.4312851e-22)
(1.0094124 -0.011970143 2.5126872e-22)
(1.0110413 -0.011652805 1.6241267e-22)
(1.0116211 -0.011110319 -6.5557592e-22)
(1.0128046 -0.010652269 5.714094e-22)
(1.0138262 -0.0099543351 -1.3076456e-21)
(1.0151058 -0.0091458195 2.5750005e-21)
(1.0163377 -0.0080201286 1.2780245e-22)
(1.0176813 -0.0067250173 -2.871409e-21)
(1.0189798 -0.0050237931 1.5011858e-21)
(1.0203139 -0.0032917246 -3.1470766e-21)
(1.0216804 -0.00099790537 5.6294516e-22)
(1.0097533 -0.012598797 -3.027005e-23)
(1.0113228 -0.012354604 -1.9351744e-22)
(1.011857 -0.01190299 3.7832433e-22)
(1.0129837 -0.011588458 0)
(1.0139682 -0.011053823 6.3199292e-24)
(1.0152329 -0.010422556 -3.8828737e-22)
(1.016462 -0.0095187204 5.6468692e-22)
(1.0178173 -0.0083500048 1.4493213e-21)
(1.0191123 -0.0069510849 -3.5469469e-22)
(1.0204404 -0.0051686569 1.9464551e-21)
(1.0217111 -0.0033676858 1.3882618e-21)
(1.0230581 -0.0010018423 -3.0793018e-22)
(1.0100808 -0.013168193 -1.3165494e-23)
(1.0115989 -0.012979637 1.7987441e-22)
(1.0120853 -0.012601221 0)
(1.0131477 -0.012419883 0)
(1.0140863 -0.012034393 4.5448992e-22)
(1.0153314 -0.011600701 -1.047195e-21)
(1.0165608 -0.010873603 1.5403593e-21)
(1.0179388 -0.0099403146 -1.514921e-21)
(1.0192574 -0.0086529837 -1.0828623e-22)
(1.0206001 -0.007173191 3.7736974e-24)
(1.0218608 -0.0052884876 -2.5761322e-21)
(1.0231139 -0.0034303841 3.0170206e-21)
(1.0243865 -0.00099963254 -5.6796695e-21)
(1.0103911 -0.013686835 8.9965408e-23)
(1.0118698 -0.013534197 -2.7020092e-23)
(1.0123058 -0.013212394 3.8434342e-22)
(1.0132971 -0.013147421 -4.874663e-22)
(1.0141784 -0.012905585 5.5382159e-22)
(1.015393 -0.012658948 -2.9368901e-22)
(1.0166221 -0.012132407 -3.4378419e-22)
(1.018025 -0.011392296 3.4190546e-23)
(1.0193844 -0.010332625 -1.2652532e-21)
(1.0207715 -0.0089562157 -1.177096e-21)
(1.0220548 -0.0073613355 -6.6435727e-22)
(1.0232963 -0.0053886085 -1.8660887e-21)
(1.0244705 -0.0034722589 -1.3116639e-21)
(1.02569 -0.00099143375 1.6156782e-21)
(1.0106819 -0.014162875 1.9245345e-22)
(1.0121371 -0.014026042 -6.8614711e-22)
(1.0125196 -0.013742575 3.3341752e-23)
(1.013431 -0.01377595 4.1130603e-23)
(1.0142453 -0.013665949 -3.8147583e-23)
(1.0154153 -0.013606291 3.6135095e-22)
(1.0166343 -0.013273776 -3.2001147e-22)
(1.0180632 -0.012753952 4.5983831e-22)
(1.0194687 -0.011881917 -2.1982836e-22)
(1.0209234 -0.010731966 9.0796671e-23)
(1.0222615 -0.0092189615 4.0393098e-23)
(1.0235386 -0.0075240975 -6.1534754e-23)
(1.0246907 -0.0054566626 2.780641e-21)
(1.025808 -0.0034943332 -1.4700083e-21)
(1.0269382 -0.00097657463 1.2962654e-21)
(1.010955 -0.014604413 -1.580767e-22)
(1.0124006 -0.014463952 3.7811332e-22)
(1.0127292 -0.014198297 -3.0373413e-22)
(1.0135501 -0.01430927 4.7193402e-22)
(1.0142866 -0.014319624 -5.5353026e-22)
(1.0153973 -0.014439694 1.078094e-21)
(1.0165941 -0.014305213 -1.513649e-21)
(1.018042 -0.014004039 8.4884855e-23)
(1.0194967 -0.01335076 4.2391136e-22)
(1.0210263 -0.012388267 -6.0967208e-22)
(1.0224496 -0.011085372 4.4547799e-21)
(1.0237977 -0.0094533403 -1.7389728e-21)
(1.0249892 -0.0076427779 -9.3371426e-22)
(1.0260746 -0.0054942551 -3.342043e-22)
(1.027093 -0.0034925892 1.051913e-23)
(1.0281415 -0.00095510589 -1.4692792e-21)
(1.0112146 -0.015017821 0)
(1.0126627 -0.014854886 4.2381011e-22)
(1.0129365 -0.014585936 -5.87366e-23)
(1.0136558 -0.014751316 0)
(1.014303 -0.014869825 0)
(1.0153392 -0.015161293 0)
(1.0165006 -0.015223838 9.8998348e-23)
(1.0179546 -0.015148322 -8.3939804e-22)
(1.019456 -0.014714289 1.1251846e-21)
(1.0210648 -0.013976304 -1.2218421e-21)
(1.0225848 -0.012845239 2.0313102e-22)
(1.0240419 -0.011409304 -9.7010244e-22)
(1.0253106 -0.0096337808 1.5261361e-22)
(1.0264418 -0.0077201004 1.0751881e-21)
(1.0274107 -0.0054946874 2.121315e-22)
(1.0283375 -0.0034673009 7.5179308e-22)
(1.0292822 -0.0009269118 0)
(1.011461 -0.015407244 -4.8032847e-23)
(1.0129357 -0.015206799 -5.1395829e-22)
(1.0131448 -0.014913003 1.0519044e-21)
(1.0137526 -0.015107075 6.9160773e-22)
(1.0142968 -0.015320653 8.3022473e-22)
(1.0152422 -0.015772663 0)
(1.016353 -0.016030235 1.1613164e-21)
(1.0177989 -0.016183417 -3.7816822e-22)
(1.0193377 -0.015979638 -2.482139e-21)
(1.021025 -0.015468292 1.4315436e-21)
(1.02265 -0.014550858 7.4853431e-22)
(1.0242309 -0.013273883 2.2577869e-22)
(1.025623 -0.01167029 -2.4265463e-21)
(1.0268412 -0.0097641525 3.5332418e-21)
(1.0278538 -0.0077457004 6.5378247e-22)
(1.0287135 -0.0054582591 5.4115838e-21)
(1.0295215 -0.0034169932 2.0365806e-21)
(1.0303624 -0.00089215582 1.8948536e-21)
(1.0116853 -0.015775315 8.9877348e-24)
(1.013217 -0.015531672 -2.3530539e-22)
(1.0133611 -0.015180247 -1.2514568e-22)
(1.0138445 -0.015381786 7.4039139e-22)
(1.0142698 -0.015676243 -1.1092848e-22)
(1.0151071 -0.016276759 2.9598394e-22)
(1.016152 -0.016726387 -1.1458824e-21)
(1.0175746 -0.017109125 -2.5700367e-21)
(1.0191391 -0.017141637 -9.8753035e-22)
(1.0208973 -0.016872119 9.7973368e-22)
(1.0226288 -0.016172755 -3.2431574e-22)
(1.0243459 -0.015100322 2.0626193e-21)
(1.0258806 -0.013632489 -1.3356241e-21)
(1.0272409 -0.011873635 -2.7663441e-23)
(1.028341 -0.0098299635 -1.5595403e-22)
(1.0292429 -0.0077199789 -8.9247386e-22)
(1.0299594 -0.0053823005 1.8503904e-21)
(1.0306479 -0.0033421117 -7.5179344e-23)
(1.0313732 -0.00085105264 1.7647603e-21)
(1.0118431 -0.016121431 6.9775537e-23)
(1.0134826 -0.015843517 1.333978e-22)
(1.0135901 -0.015394844 -1.727297e-21)
(1.013937 -0.015577814 -3.6759354e-22)
(1.0142256 -0.015940483 2.9958679e-22)
(1.0149349 -0.016676971 1.0383238e-22)
(1.0158995 -0.017314247 2.458286e-22)
(1.0172822 -0.017926006 9.6905177e-22)
(1.0188595 -0.018199832 -4.2285577e-22)
(1.0206766 -0.018180166 -3.0452467e-21)
(1.0225123 -0.017716868 2.2770155e-21)
(1.0243665 -0.016857976 -1.2775299e-22)
(1.0260622 -0.015574142 -8.1923684e-22)
(1.0275881 -0.013927888 6.4674671e-23)
(1.0288397 -0.012000109 4.2171825e-23)
(1.029831 -0.0098315218 -3.171441e-21)
(1.0305806 -0.007638432 8.3659254e-22)
(1.0311528 -0.0052672919 -3.0889425e-21)
(1.0317061 -0.0032428503 -7.7573257e-22)
(1.0323134 -0.00080392738 -1.823365e-21)
(1.0118662 -0.016437675 -4.8164576e-24)
(1.0136921 -0.016134086 -4.7152822e-23)
(1.013813 -0.015566037 2.1266298e-22)
(1.0140406 -0.015703655 6.3116021e-22)
(1.0141682 -0.016114494 -1.3776483e-22)
(1.0147275 -0.016978113 -6.8026865e-22)
(1.0155978 -0.017797 2.0092362e-21)
(1.0169237 -0.018636295 3.9279553e-21)
(1.0184997 -0.019153997 -9.2671076e-22)
(1.0203629 -0.019391661 0)
(1.0222924 -0.019175093 -1.4877295e-21)
(1.0242832 -0.018549496 1.0715082e-21)
(1.0261438 -0.017463524 2.4917789e-21)
(1.0278592 -0.015981052 -2.0276297e-21)
(1.0292908 -0.014135717 1.0719552e-21)
(1.0304454 -0.012049792 -2.6075488e-21)
(1.0312778 -0.0097620452 -1.1521071e-22)
(1.0318736 -0.0075014045 1.1286227e-21)
(1.03228 -0.0051132824 -1.8825849e-21)
(1.0326948 -0.0031201858 -1.6486501e-22)
(1.0331791 -0.00075121638 -1.6762728e-21)
(1.0116357 -0.016687805 -3.7176476e-22)
(1.0135865 -0.016415119 -3.3477902e-22)
(1.0139651 -0.015684814 4.9255934e-22)
(1.0141399 -0.015774124 -1.0395662e-21)
(1.0141106 -0.01619981 -1.1424392e-21)
(1.014489 -0.01718372 1.32296e-22)
(1.0152481 -0.01817912 0)
(1.016501 -0.019243013 4.788769e-22)
(1.0180623 -0.020005967 -8.3070207e-22)
(1.0199573 -0.020505057 -3.1651353e-21)
(1.0219693 -0.020544968 -2.4885452e-22)
(1.0240873 -0.020166841 7.1969336e-22)
(1.0261145 -0.01930115 -1.8289208e-22)
(1.0280258 -0.018000697 -8.63135e-22)
(1.0296683 -0.016291229 1.5034227e-21)
(1.0310198 -0.014255607 -1.4364282e-21)
(1.0320183 -0.012013159 3.4347585e-22)
(1.0326899 -0.0096213273 -2.1435193e-21)
(1.0331037 -0.0073084105 -3.8688144e-22)
(1.0333405 -0.0049216262 -7.5268262e-23)
(1.0336093 -0.0029753742 -9.7951415e-22)
(1.0339692 -0.0006934415 0)
(1.0110213 -0.016833041 -2.5317085e-22)
(1.0129464 -0.016666147 3.0562534e-22)
(1.0138756 -0.015759597 -3.3584706e-23)
(1.0141687 -0.01578475 -1.0506031e-21)
(1.0140499 -0.016212263 -9.2445713e-22)
(1.0142314 -0.01729154 7.001177e-22)
(1.0148517 -0.018464807 -2.4604509e-22)
(1.0160168 -0.019749522 2.4458504e-21)
(1.0175502 -0.020758394 7.9708777e-22)
(1.0194636 -0.021521444 2.2752219e-22)
(1.0215448 -0.021823858 -5.3895241e-23)
(1.0237777 -0.02170474 -1.5924829e-21)
(1.0259652 -0.021077021 2.3478372e-22)
(1.0280736 -0.01998596 2.9964532e-23)
(1.0299392 -0.018433711 -2.1315802e-21)
(1.0315256 -0.016503942 -2.3683809e-21)
(1.0327292 -0.014274976 1.6173527e-22)
(1.0335696 -0.011889082 3.8149611e-21)
(1.0340445 -0.009407927 1.6162693e-22)
(1.0342714 -0.0070609442 -1.1917697e-21)
(1.0343272 -0.0046941174 0)
(1.0344477 -0.0028100729 2.1079049e-21)
(1.0346826 -0.00063115416 4.1483712e-23)
(1.0100171 -0.016862794 1.5610864e-21)
(1.0117627 -0.01682346 1.0864247e-21)
(1.0131287 -0.015802499 1.7579681e-23)
(1.0139604 -0.015742099 2.1210461e-22)
(1.0139379 -0.016151059 -1.5315749e-21)
(1.0139679 -0.017319295 0)
(1.0144166 -0.018654106 -3.4081912e-23)
(1.0154728 -0.020161671 9.5726366e-22)
(1.0169658 -0.021414961 1.8445956e-21)
(1.0188861 -0.022443382 2.2320066e-21)
(1.0210237 -0.023011384 -1.5894321e-21)
(1.0233571 -0.023158967 -1.5569772e-21)
(1.025692 -0.022783201 1.9870345e-21)
(1.027993 -0.021922453 -1.9897351e-21)
(1.0300859 -0.020561052 3.3068081e-21)
(1.0319243 -0.018762009 4.5224883e-21)
(1.0333792 -0.016603089 -1.2610219e-21)
(1.0344335 -0.014191145 1.5153789e-21)
(1.0350714 -0.011674688 -4.5329153e-21)
(1.0353432 -0.0091229214 1.1949254e-21)
(1.0353661 -0.0067611662 2.5131465e-21)
(1.0352379 -0.0044331278 -2.0951995e-21)
(1.0352085 -0.0026262711 1.2404095e-21)
(1.0353188 -0.00056474774 3.4369625e-23)
(1.0086708 -0.016771741 3.7531102e-22)
(1.0099884 -0.016859669 7.1368812e-22)
(1.0115927 -0.015786083 -2.4853777e-22)
(1.01309 -0.015698606 -1.3723574e-21)
(1.0136308 -0.01602356 7.5879567e-22)
(1.0136721 -0.017274417 -2.3244574e-21)
(1.0139685 -0.01875544 -1.152223e-23)
(1.0148735 -0.020482259 -3.0480471e-21)
(1.0163123 -0.021980375 6.6303153e-22)
(1.0182291 -0.023274413 1.1300129e-21)
(1.020412 -0.024109145 -1.0258805e-21)
(1.0228314 -0.024526782 2.5986331e-21)
(1.0252979 -0.024413084 -1.2123329e-21)
(1.0277782 -0.023801504 -1.5463907e-22)
(1.0300956 -0.022656235 1.6814173e-21)
(1.0321946 -0.021026839 4.9113236e-22)
(1.033925 -0.018965524 -2.6542107e-22)
(1.0352475 -0.016584005 2.4567971e-21)
(1.0360989 -0.013999475 0)
(1.0365261 -0.011370109 4.4049624e-22)
(1.0365708 -0.0087685634 1.2624132e-22)
(1.0363857 -0.0064120836 -2.3093973e-22)
(1.0360699 -0.0041415195 -2.8517038e-23)
(1.0358917 -0.0024261187 -1.8091271e-21)
(1.0358787 -0.00049484017 -7.6824975e-22)
(1.0070027 -0.016569654 -1.6011142e-21)
(1.0077433 -0.016756 -2.088975e-22)
(1.0093745 -0.015659152 1.3420589e-22)
(1.0112828 -0.01564993 1.6214186e-22)
(1.0127951 -0.015894392 2.4412986e-21)
(1.0132379 -0.017154876 3.8458734e-22)
(1.0134978 -0.018787015 9.7712281e-24)
(1.0142471 -0.020711444 2.0358003e-22)
(1.0155936 -0.022462675 2.5410384e-21)
(1.0174948 -0.024019065 -3.2298939e-22)
(1.019716 -0.025120031 1.5580964e-21)
(1.0222084 -0.025808095 -2.9922025e-22)
(1.0247895 -0.025960973 -1.3257889e-21)
(1.0274309 -0.025612409 4.3414982e-22)
(1.0299621 -0.024707627 -5.3984635e-22)
(1.0323191 -0.023280224 -2.490897e-21)
(1.0343412 -0.021358564 -2.7391463e-21)
(1.0359627 -0.019037517 -3.5806824e-21)
(1.0370906 -0.016439842 -5.1684722e-21)
(1.0377292 -0.01369846 -5.1632861e-23)
(1.0379139 -0.010977356 4.9542924e-21)
(1.0377256 -0.0083479528 8.8584115e-22)
(1.0373247 -0.00601758 -1.9930912e-21)
(1.0368217 -0.0038225261 1.7428643e-21)
(1.0364978 -0.0022118615 -1.1967818e-21)
(1.0363646 -0.00042291836 6.9101431e-23)
(1.0049597 -0.016271264 7.8477969e-23)
(1.0051308 -0.016507047 -7.0719508e-23)
(1.0066095 -0.015407257 -6.3331728e-22)
(1.0086419 -0.015537578 8.5227737e-22)
(1.01095 -0.015790359 -1.5126932e-21)
(1.0124056 -0.017012 1.9770043e-21)
(1.0129331 -0.018737688 1.9049338e-21)
(1.0136031 -0.020873894 2.2067682e-21)
(1.0148327 -0.022853972 -3.8176349e-21)
(1.0166871 -0.024685184 -1.634686e-21)
(1.0189409 -0.026049006 1.091519e-22)
(1.0214973 -0.027004729 -4.0812448e-21)
(1.0241765 -0.027423967 3.7821878e-21)
(1.0269577 -0.027346152 -1.3043721e-21)
(1.0296826 -0.026701217 6.3981699e-22)
(1.0322897 -0.025505304 3.4081765e-22)
(1.0346054 -0.023763307 -2.018615e-21)
(1.0365494 -0.021547966 2.2040462e-21)
(1.0379929 -0.018968096 -2.1943821e-21)
(1.0389144 -0.016166466 1.5120108e-22)
(1.0392994 -0.013289352 0)
(1.0392331 -0.010498956 1.9390774e-21)
(1.0387986 -0.0078657376 3.289629e-22)
(1.0381812 -0.0055820335 0)
(1.0374925 -0.0034798801 -2.0935993e-21)
(1.0370276 -0.0019860467 -1.3241293e-22)
(1.0367791 -0.00034911648 4.8853312e-22)
(1.0023862 -0.015896508 6.9855806e-22)
(1.0021635 -0.016131556 2.6107258e-23)
(1.0034527 -0.015028527 -9.2889659e-22)
(1.0053046 -0.015332671 1.6104582e-23)
(1.0080848 -0.015686318 -5.6152213e-22)
(1.0106332 -0.016910568 -2.12167e-21)
(1.0120676 -0.018645699 -1.4191084e-22)
(1.0129036 -0.020955897 -2.2578132e-21)
(1.0140558 -0.023182135 4.3435697e-22)
(1.0158258 -0.025268097 2.7627215e-21)
(1.0180886 -0.026902058 -2.7767939e-21)
(1.0207062 -0.028120007 -9.5181423e-22)
(1.0234699 -0.028801093 -1.8038631e-21)
(1.0263692 -0.028995872 6.9109966e-22)
(1.0292633 -0.02862419 -1.4329463e-21)
(1.032101 -0.027687279 9.2739583e-22)
(1.0347051 -0.026160832 -1.2628204e-21)
(1.0369803 -0.024096418 7.901678e-21)
(1.038772 -0.02158103 2.6361182e-21)
(1.0400231 -0.018750043 1.2637534e-21)
(1.040688 -0.015764207 2.8508225e-21)
(1.0408076 -0.012773527 -4.6211569e-22)
(1.0404702 -0.0099403273 -1.8775088e-22)
(1.0397871 -0.00732692 0)
(1.0389531 -0.0051101021 0)
(1.0380829 -0.0031172888 1.7416698e-22)
(1.0374822 -0.0017505977 -1.0461019e-21)
(1.037124 -0.00027354502 -7.0517784e-22)
(0.99909646 -0.015466087 0)
(0.99871843 -0.015653661 2.331815e-22)
(0.99994669 -0.014536016 1.3180227e-21)
(1.0014904 -0.015009561 1.009632e-21)
(1.0043657 -0.015529009 1.9647284e-21)
(1.0076962 -0.01685331 4.4880568e-22)
(1.0104493 -0.018589955 -1.5484607e-21)
(1.0119876 -0.020982507 -3.590006e-21)
(1.0132446 -0.023437252 4.062708e-21)
(1.0149494 -0.02579051 -8.5512832e-22)
(1.0171747 -0.027680867 2.4869739e-22)
(1.0198398 -0.029160276 8.3984074e-22)
(1.0226817 -0.030093702 -5.3877786e-21)
(1.025678 -0.030556834 1.2667453e-21)
(1.028714 -0.030465222 9.8095014e-22)
(1.0317558 -0.029808337 -1.3251169e-21)
(1.0346332 -0.02853261 1.0254982e-21)
(1.0372383 -0.026663129 -1.7438766e-21)
(1.0393954 -0.024260733 5.3127481e-21)
(1.0410174 -0.021447504 -9.0186362e-22)
(1.0420171 -0.018381863 2.3998186e-21)
(1.0424097 -0.015232148 1.5713216e-21)
(1.0422357 -0.012156699 -1.5509366e-22)
(1.0416223 -0.0093065309 -4.6794534e-21)
(1.0406866 -0.0067375997 -1.4114684e-21)
(1.0396399 -0.0046067874 3.0461508e-22)
(1.0385946 -0.002737931 1.4593298e-21)
(1.0378641 -0.0015072844 -4.8705498e-22)
(1.0374032 -0.00019740371 5.8145834e-22)
(0.99495568 -0.014989788 -3.0979529e-21)
(0.99459681 -0.015087631 0)
(0.99599944 -0.01395163 0)
(0.99731784 -0.014567607 0)
(1.0000505 -0.015286156 -5.9831168e-22)
(1.0037639 -0.016788313 2.0642933e-21)
(1.0076145 -0.018598462 3.7338723e-23)
(1.0105019 -0.021029579 7.3126089e-23)
(1.0122895 -0.023628138 5.6562935e-21)
(1.0140466 -0.026244716 -6.1920616e-21)
(1.0162467 -0.028400748 2.7457616e-21)
(1.018908 -0.030128503 -1.0210493e-21)
(1.0218207 -0.03130506 1.6900293e-21)
(1.0248984 -0.032026547 -1.7565372e-21)
(1.0280476 -0.032214863 3.3097308e-21)
(1.0312621 -0.031853052 1.3225688e-21)
(1.0343869 -0.030858369 -1.3050288e-21)
(1.0373113 -0.029225859 -2.8934441e-21)
(1.0398408 -0.026986539 2.3444274e-22)
(1.04186 -0.024242791 -1.8424394e-21)
(1.0432458 -0.021142401 -2.8335755e-21)
(1.0439731 -0.017859522 5.140758e-22)
(1.0440559 -0.014576141 3.6027071e-21)
(1.0435797 -0.011443488 -2.0914712e-21)
(1.0426809 -0.0086051577 -2.6835704e-22)
(1.0414954 -0.0061040611 -6.9663558e-22)
(1.0402416 -0.0040772076 1.474519e-21)
(1.0390295 -0.0023455852 5.619919e-22)
(1.0381764 -0.0012584092 1.3966729e-21)
(1.03762 -0.00012094304 9.9455286e-23)
(0.98946742 -0.014419229 -2.2451871e-22)
(0.98962302 -0.014460979 4.8138483e-22)
(0.99142498 -0.013298452 0)
(0.99274287 -0.014026032 0)
(0.99532071 -0.014943219 0)
(0.99907599 -0.016672027 0)
(1.0036356 -0.018633973 0)
(1.0078591 -0.021138559 -2.6667915e-23)
(1.0109274 -0.023814011 -2.2138124e-21)
(1.0130521 -0.026631796 6.7451401e-21)
(1.0152985 -0.029056085 -1.2849279e-22)
(1.0179586 -0.031037369 3.1501223e-21)
(1.0208942 -0.032440835 -5.8236382e-21)
(1.0240429 -0.033404753 2.6028277e-21)
(1.0272792 -0.033866134 -2.4427534e-22)
(1.0306317 -0.03380708 2.1886542e-21)
(1.0339711 -0.033118439 -3.4504996e-21)
(1.0371938 -0.031763598 5.3620827e-22)
(1.0400918 -0.029737179 3.5237402e-21)
(1.0425238 -0.027116134 1.7311693e-21)
(1.0443319 -0.024032758 3.7766397e-22)
(1.0454541 -0.020658461 2.5427592e-21)
(1.0458617 -0.017188436 9.8686034e-23)
(1.0456214 -0.013799394 -1.4087078e-21)
(1.0448271 -0.010642812 1.097429e-21)
(1.0436439 -0.0078432159 3.688022e-21)
(1.0422124 -0.0054330637 9.4748785e-22)
(1.0407595 -0.003526706 -6.4395276e-22)
(1.0393901 -0.0019436226 6.1776811e-23)
(1.0384224 -0.0010058259 -5.9122957e-22)
(1.0377778 -4.4404797e-05 5.6439934e-24)
(0.98192434 -0.013714849 3.6824756e-21)
(0.98325755 -0.013737567 1.1588177e-22)
(0.98604746 -0.01260022 2.0510928e-21)
(0.98758508 -0.013404422 2.6480369e-21)
(0.99018447 -0.01450399 0)
(0.99387057 -0.016471297 0)
(0.99872561 -0.018649505 1.0921136e-22)
(1.0039271 -0.021311752 3.0942271e-21)
(1.0085574 -0.024059025 -4.9467266e-21)
(1.011759 -0.026998606 6.3271301e-21)
(1.0142942 -0.029648242 3.0834461e-22)
(1.0170014 -0.03188271 -4.3940882e-21)
(1.0199446 -0.03350638 6.0057161e-22)
(1.0231203 -0.034695157 -4.3705884e-22)
(1.0264239 -0.035413993 -2.7976577e-21)
(1.029879 -0.035658394 3.1862217e-22)
(1.0333951 -0.035294048 3.4568959e-21)
(1.0368849 -0.034252504 -2.5209699e-22)
(1.0401379 -0.032487039 -1.0969202e-21)
(1.042987 -0.030045165 9.3390667e-21)
(1.0452433 -0.027034813 8.3196705e-22)
(1.0468067 -0.023619444 -2.5139594e-21)
(1.0476082 -0.019998838 4.9009862e-21)
(1.0476765 -0.016369343 2.8522549e-21)
(1.0470888 -0.012912149 -6.7132207e-23)
(1.0459744 -0.0097620309 2.1072237e-21)
(1.0445072 -0.0070293815 1.0868168e-21)
(1.042838 -0.0047312737 1.9929242e-22)
(1.0411957 -0.0029603485 -5.9860775e-22)
(1.0396795 -0.0015355601 -2.2722266e-22)
(1.0386061 -0.00075180879 1.1865733e-22)
(1.0378803 3.1811555e-05 1.4055276e-23)
(0.97228272 -0.012889273 -1.3170456e-21)
(0.97478398 -0.012876991 -6.4106269e-22)
(0.97931786 -0.011807707 -2.9939718e-21)
(0.9816468 -0.012727297 -3.089314e-21)
(0.98448278 -0.013979743 0)
(0.98821716 -0.016179948 0)
(0.99317336 -0.018596057 0)
(0.99889227 -0.021484867 -3.5522697e-22)
(1.0047846 -0.024389348 5.2362569e-21)
(1.0096943 -0.02740875 5.1910858e-21)
(1.0130981 -0.030214157 3.1696977e-22)
(1.0160133 -0.032667474 -8.3262724e-22)
(1.0189973 -0.034503071 8.9684657e-21)
(1.0221614 -0.035897854 -5.69678e-21)
(1.0254936 -0.036856948 1.1701372e-21)
(1.0290195 -0.037396816 0)
(1.0326714 -0.037368503 1.1952258e-21)
(1.0363907 -0.036670454 -5.228384e-22)
(1.0399727 -0.035212894 3.0662498e-21)
(1.0432339 -0.033005062 7.3727095e-23)
(1.0459538 -0.030127822 -4.5274269e-21)
(1.0479949 -0.026726876 -6.7497927e-22)
(1.049246 -0.023002135 -3.938777e-21)
(1.0496988 -0.019161851 -4.4264416e-21)
(1.0493943 -0.015413514 1.0968971e-21)
(1.0484528 -0.011921327 5.7277444e-22)
(1.0470139 -0.0088120411 -3.5019062e-22)
(1.0452701 -0.0061719385 1.2452166e-23)
(1.0433731 -0.0040055927 -6.0065352e-22)
(1.0415531 -0.0023831695 -7.1098693e-22)
(1.0399012 -0.0011245065 3.1024006e-22)
(1.0387314 -0.00049809535 -9.6812747e-22)
(1.0379318 0.00010703092 5.9003749e-22)
(0.96030967 -0.011929101 -1.2867922e-21)
(0.96411582 -0.011889835 -3.3744314e-23)
(0.97051277 -0.010875844 -5.5513677e-21)
(0.97433804 -0.011932936 -6.2702715e-21)
(0.97800704 -0.013400155 1.2515853e-21)
(0.98198196 -0.015801283 3.3246437e-22)
(0.98709856 -0.018457754 6.4701089e-21)
(0.99305464 -0.021601094 -3.3954425e-21)
(0.99974051 -0.024753969 -5.9594352e-22)
(1.0062189 -0.027918527 -1.1198807e-20)
(1.0113349 -0.030804693 4.7803083e-21)
(1.0149152 -0.033422004 6.6823258e-21)
(1.018045 -0.035430142 -3.2052096e-22)
(1.0212051 -0.037015108 -3.3468959e-21)
(1.0245048 -0.03819551 -3.7309952e-21)
(1.0280674 -0.039015895 -1.1942928e-21)
(1.0318145 -0.039326703 5.5921782e-22)
(1.0357208 -0.038996568 4.3684159e-21)
(1.0395975 -0.037888695 -3.7002636e-22)
(1.0432554 -0.035970337 -7.6764875e-22)
(1.046443 -0.033286866 -1.3644717e-22)
(1.0489868 -0.029962589 -6.9405463e-21)
(1.0507355 -0.026185975 5.2901066e-22)
(1.0516369 -0.022176152 4.963225e-22)
(1.0516976 -0.018158074 -5.7897003e-21)
(1.0510077 -0.014326644 -1.8055366e-21)
(1.0497019 -0.010840166 -1.4845975e-21)
(1.0479443 -0.0078017999 -8.6840845e-22)
(1.0459322 -0.0052795926 -7.5009181e-22)
(1.04382 -0.0032625643 -5.2722992e-23)
(1.0418349 -0.0017998139 -6.93727e-23)
(1.0400593 -0.00071343865 -8.8622986e-23)
(1.0388023 -0.00024637511 6.0641683e-22)
(1.0379365 0.0001808415 -1.4936596e-21)
(0.9460116 -0.010820462 1.4633974e-21)
(0.95097008 -0.010765434 4.1615731e-23)
(0.95949691 -0.0098164497 6.6907575e-21)
(0.96492366 -0.010971873 2.9726687e-21)
(0.97013865 -0.012674577 -4.5966438e-21)
(0.97495069 -0.015368979 -6.4658815e-21)
(0.98040163 -0.018226918 -9.0853774e-22)
(0.98659676 -0.021630455 0)
(0.9936935 -0.025075387 -4.0814969e-21)
(1.0012814 -0.0284935 -1.3883491e-20)
(1.008268 -0.031488675 -1.0902476e-22)
(1.0134237 -0.034174026 -2.4461048e-21)
(1.0170432 -0.036314811 0)
(1.0202632 -0.038040793 -3.9040119e-22)
(1.023504 -0.039424377 6.9657415e-21)
(1.027033 -0.040514679 1.7486467e-21)
(1.0308388 -0.04115834 -5.0314859e-21)
(1.0348873 -0.041211595 0)
(1.0390182 -0.040490676 -9.1413734e-22)
(1.0430451 -0.038914376 -1.0528392e-21)
(1.0466948 -0.036485475 -6.8483239e-21)
(1.0497576 -0.033302162 -5.9408774e-22)
(1.0520406 -0.02953554 0)
(1.0534486 -0.025403467 -5.4908521e-21)
(1.0539457 -0.021149912 1.2774526e-21)
(1.0535934 -0.016992267 -6.0385383e-23)
(1.0525001 -0.013124313 -2.4204666e-21)
(1.0508326 -0.009678045 1.6168061e-21)
(1.0487621 -0.0067429295 1.199395e-22)
(1.0464948 -0.0043608031 -1.2534101e-21)
(1.0441814 -0.002508588 1.0146383e-21)
(1.0420451 -0.0012146776 4.087335e-22)
(1.0401578 -0.00030499595 0)
(1.0388231 2.1285543e-06 -2.5602462e-23)
(1.0378981 0.00025288559 -5.8030732e-22)
(0.92984728 -0.0095428281 1.1911443e-21)
(0.93528551 -0.0094830622 -6.4026457e-22)
(0.94596041 -0.008618736 6.5755161e-21)
(0.95322383 -0.0098628159 1.144397e-21)
(0.96013104 -0.011753011 -9.2337519e-22)
(0.96645924 -0.014758151 -1.2152581e-21)
(0.9728646 -0.017950493 -6.4390481e-21)
(0.97945755 -0.021554175 -1.5599374e-22)
(0.98688254 -0.025302991 0)
(0.99507908 -0.029037544 4.9614554e-21)
(1.0035382 -0.032257486 -4.4669987e-21)
(1.0107832 -0.034999976 6.6776592e-22)
(1.0157359 -0.037178165 -2.6232726e-21)
(1.0193061 -0.039002225 3.9329876e-21)
(1.0225242 -0.040535469 1.7174486e-21)
(1.0259519 -0.041881257 6.308427e-21)
(1.0297554 -0.042854469 -1.0024924e-20)
(1.0339031 -0.043300621 -1.8587662e-21)
(1.0382441 -0.042995879 5.8859099e-21)
(1.0426045 -0.041810532 -5.7157394e-21)
(1.0467007 -0.039697814 6.1924992e-21)
(1.0502879 -0.036721661 -1.9274847e-21)
(1.0531321 -0.033029368 0)
(1.0550944 -0.028833001 -1.4971561e-21)
(1.0560948 -0.024384322 2.8507584e-22)
(1.0561566 -0.019926994 2.530482e-21)
(1.0553646 -0.015680934 1.2833917e-21)
(1.0538657 -0.011815972 6.5405679e-22)
(1.0518386 -0.0084498193 1.009884e-21)
(1.0494682 -0.0056449636 0)
(1.0469599 -0.00342386 1.2003408e-21)
(1.044461 -0.0017495625 1.1083e-21)
(1.0421877 -0.00063170985 1.47782e-21)
(1.0402009 9.8436981e-05 -8.4292194e-22)
(1.0387978 0.00024617685 7.1132884e-24)
(1.0378207 0.00032284791 2.2452027e-21)
(0.91290246 -0.0080790088 -1.2467356e-21)
(0.91746579 -0.008016754 7.1437148e-24)
(0.92979358 -0.0072647977 -2.2578852e-21)
(0.93890149 -0.0085846783 -7.7207359e-23)
(0.94776872 -0.010668358 4.9108542e-21)
(0.95574049 -0.01392222 5.1787078e-21)
(0.96377777 -0.017455552 1.1925567e-22)
(0.97141456 -0.02143156 -5.0408598e-21)
(0.97928895 -0.025397929 -8.0037092e-23)
(0.98788897 -0.029468347 -4.647363e-21)
(0.99721506 -0.033003683 -5.8419197e-23)
(1.006295 -0.035895152 2.2713809e-21)
(1.013468 -0.038073144 -2.8045039e-23)
(1.0181549 -0.039901561 3.6547648e-21)
(1.0215351 -0.041549115 -1.5179872e-20)
(1.024881 -0.043108201 1.3467491e-21)
(1.0285809 -0.044409848 2.9285074e-21)
(1.0327809 -0.045248369 4.7914277e-21)
(1.0372857 -0.045385072 -4.1234018e-21)
(1.0419393 -0.044633628 -1.2269971e-21)
(1.0464547 -0.042895609 4.1482425e-21)
(1.0505624 -0.040192118 -5.5776097e-21)
(1.0539853 -0.036643467 3.6847514e-21)
(1.0565405 -0.032446502 0)
(1.0581028 -0.027854836 5.6674568e-21)
(1.058653 -0.023130004 5.7875868e-21)
(1.0582426 -0.018523629 -1.6876455e-21)
(1.0570018 -0.014234256 3.9924834e-21)
(1.0550944 -0.010419567 1.66003e-22)
(1.0527193 -0.007165992 -1.0897348e-21)
(1.0500628 -0.0045192187 -6.9921804e-22)
(1.0473309 -0.0024765883 -1.0910145e-21)
(1.044663 -0.00099101157 -1.4061525e-22)
(1.0422673 -5.4493032e-05 1.8336143e-21)
(1.0401932 0.00049479431 -4.7015953e-22)
(1.0387307 0.00048473132 -1.0344971e-22)
(1.0377082 0.00039048344 9.2836067e-22)
(0.89693458 -0.0064199254 1.0904696e-22)
(0.89862171 -0.0063315117 6.7115847e-22)
(0.91136037 -0.0057274752 -3.3231987e-21)
(0.92179705 -0.0071167726 -9.697102e-22)
(0.93269295 -0.0093893953 1.1305939e-22)
(0.94254601 -0.01291231 -1.6855841e-22)
(0.95235386 -0.016706404 -2.7896502e-21)
(0.96170301 -0.021032133 1.4131601e-21)
(0.9706947 -0.025429171 0)
(0.97974734 -0.029723117 1.0237621e-21)
(0.9895812 -0.033608606 0)
(0.99983535 -0.036774215 0)
(1.009211 -0.039006677 2.4193542e-21)
(1.0161017 -0.040780747 -3.0224945e-22)
(1.0203626 -0.042464673 -2.3828441e-21)
(1.0237997 -0.044201279 -4.2997866e-21)
(1.0273826 -0.045807081 9.6848171e-21)
(1.0315263 -0.047056642 1.6117665e-22)
(1.0361562 -0.047638739 3.1216494e-21)
(1.0410574 -0.047360553 1.4125581e-21)
(1.0459583 -0.046051672 -6.4735629e-21)
(1.0505717 -0.04368821 2.1071911e-22)
(1.0545813 -0.040352915 1.5656154e-21)
(1.0577593 -0.036223205 2.2503134e-21)
(1.0599333 -0.031547147 5.2504491e-22)
(1.0610387 -0.026599539 9.9439424e-22)
(1.0610896 -0.021655731 -1.3575515e-21)
(1.0601893 -0.016950765 -2.5099115e-21)
(1.0584907 -0.012672311 -2.7693456e-22)
(1.0561836 -0.0089468756 -3.308648e-21)
(1.053473 -0.0058413313 -1.5670865e-21)
(1.0505489 -0.0033747739 -6.9995627e-22)
(1.0476115 -0.0015262632 -1.6000983e-21)
(1.0447919 -0.00023786963 1.4933357e-21)
(1.0422884 0.00051384792 -3.791495e-21)
(1.0401389 0.00088230795 -5.3453703e-22)
(1.0386256 0.0007169243 -8.2536138e-22)
(1.0375644 0.00045555893 0)
(0.88417369 -0.0045648861 1.6252358e-21)
(0.88066832 -0.0044078089 8.1124034e-24)
(0.89177127 -0.0039797583 -1.0506664e-21)
(0.90220709 -0.0054323084 -8.2708879e-22)
(0.91470515 -0.0078904716 -2.2275162e-21)
(0.92650173 -0.011681546 -1.5158503e-21)
(0.93830708 -0.015781856 3.1542109e-22)
(0.94951987 -0.020333293 9.4135548e-21)
(0.96028314 -0.025108711 1.4380592e-22)
(0.97045923 -0.029879292 1.0907017e-20)
(0.98075518 -0.033989414 -9.7234207e-23)
(0.9916463 -0.037479821 0)
(1.0025529 -0.039904784 0)
(1.011929 -0.041674783 -2.6608923e-21)