/*--------------------------------*- C++ -*----------------------------------*\
  =========                 |
  \\      /  F ield         | OpenFOAM: The Open Source CFD Toolbox
   \\    /   O peration     | Website:  https://openfoam.org
    \\  /    A nd           | Version:  8
     \\/     M anipulation  |
\*---------------------------------------------------------------------------*/
FoamFile
{
    version     2.0;
    format      ascii;
    class       volSymmTensorField;
    location    "100.9663773";
    object      UPrime2Mean;
}
// * * * * * * * * * * * * * * * * * * * * * * * * * * * * * * * * * * * * * //

dimensions      [0 2 -2 0 0 0 0];

internalField   nonuniform List<symmTensor> 
9200
(
(5.0953675e-05 -2.6915445e-06 6.4811803e-27 2.6059378e-07 -3.4191591e-28 6.7240526e-48)
(5.2769296e-05 -9.17697e-06 -1.9699906e-24 2.7088256e-06 8.9726074e-25 3.5872993e-43)
(7.0905009e-05 -3.1455838e-06 0 2.4811984e-07 0 0)
(5.6736712e-05 -1.5106401e-05 1.0688822e-24 6.7930654e-06 -7.3895239e-25 9.6778516e-44)
(7.3515338e-05 -1.0850535e-05 -1.8474399e-24 2.6540206e-06 6.9778178e-25 2.2808701e-43)
(7.9257465e-05 -3.2409659e-06 0 2.4039419e-07 0 0)
(6.2429534e-05 -2.211717e-05 1.1109387e-25 1.2979865e-05 -1.0201772e-25 9.9452782e-46)
(7.8743336e-05 -1.7623223e-05 -8.048981e-26 6.6119455e-06 4.7198165e-26 1.0289664e-45)
(8.2078674e-05 -1.1267506e-05 0 2.6133288e-06 0 0)
(9.344856e-05 -3.3835661e-06 0 2.3121749e-07 0 0)
(6.9895209e-05 -2.9534118e-05 -2.4274464e-24 2.0311097e-05 2.5152321e-24 3.7572544e-43)
(8.6443086e-05 -2.5600963e-05 -1.5666619e-24 1.2707307e-05 1.1974968e-24 1.3817048e-43)
(8.7684788e-05 -1.8208165e-05 -1.3644729e-24 6.490102e-06 6.6025326e-25 7.5755113e-44)
(9.6688187e-05 -1.1948806e-05 -9.9661862e-26 2.5748927e-06 2.7145137e-26 3.1177616e-46)
(0.00010507468 -3.4428381e-06 -7.8724808e-28 2.2310027e-07 8.544924e-30 8.5552581e-50)
(7.8950525e-05 -3.7934454e-05 -2.3908981e-24 2.9239949e-05 2.8107493e-24 3.3315248e-43)
(9.6352164e-05 -3.3729139e-05 1.725223e-25 1.9901421e-05 -1.6255254e-25 3.2593515e-45)
(9.60105e-05 -2.6368596e-05 -4.6768095e-24 1.2502543e-05 2.9992775e-24 8.0639625e-43)
(0.00010298945 -1.9186695e-05 -2.1425359e-24 6.3755171e-06 8.7222011e-25 1.2613724e-43)
(0.00010862243 -1.2345495e-05 -2.1306601e-26 2.5355022e-06 -2.4982667e-27 6.2099554e-46)
(0.00011761758 -3.4764816e-06 5.7288245e-24 2.1494142e-07 -3.7332374e-25 6.5863513e-43)
(8.9607812e-05 -4.7070857e-05 -2.7789142e-24 3.926878e-05 3.2907447e-24 3.2293952e-43)
(0.0001084906 -4.279322e-05 -2.7253728e-24 2.8744802e-05 2.9451112e-24 3.8726033e-43)
(0.00010670422 -3.455063e-05 2.9826979e-24 1.9597594e-05 -2.2905815e-24 3.0298817e-43)
(0.00011231916 -2.7735959e-05 2.2455626e-25 1.2342459e-05 -1.1915917e-25 1.2487562e-45)
(0.00011543289 -1.9733794e-05 -2.4954321e-24 6.2649187e-06 9.1722319e-25 1.4054621e-43)
(0.00012152978 -1.2704632e-05 -2.7715644e-24 2.4984766e-06 5.9067738e-25 1.4201745e-43)
(0.00012967106 -3.4596595e-06 -5.4194697e-25 2.0701968e-07 2.7988872e-26 4.1334322e-45)
(0.00010181287 -5.7053395e-05 -1.952426e-24 5.0580588e-05 2.031876e-24 1.0890276e-43)
(0.0001227695 -5.2369646e-05 -2.0533121e-24 3.8717341e-05 2.4943394e-24 2.0076137e-43)
(0.0001197076 -4.3563316e-05 -3.5360855e-24 2.835271e-05 3.0928804e-24 3.7314105e-43)
(0.00012417814 -3.6186044e-05 -2.4901233e-26 1.9402787e-05 -2.5689377e-26 5.0993495e-45)
(0.00012552437 -2.8504447e-05 6.4162468e-24 1.2178155e-05 -3.1049795e-24 8.117855e-43)
(0.00012891881 -2.0235044e-05 3.1339288e-24 6.1652404e-06 -1.0021307e-24 1.6479903e-43)
(0.00013393927 -1.2909844e-05 3.8469423e-24 2.4576257e-06 -7.8583242e-25 2.6391969e-43)
(0.00014140829 -3.4024326e-06 -6.7804369e-24 1.9907156e-07 3.6675117e-25 6.8840382e-43)
(0.00011560417 -6.779128e-05 4.0286273e-24 6.3072686e-05 -5.398837e-24 5.5165192e-43)
(0.0001392638 -6.2593402e-05 -2.2667826e-24 5.0065116e-05 3.1662434e-24 2.8393667e-43)
(0.0001348574 -5.2959151e-05 -1.0363909e-26 3.8249168e-05 -3.8864006e-26 5.6948313e-45)
(0.00013854466 -4.5444705e-05 -2.1519475e-24 2.8190695e-05 1.6631513e-24 1.0596828e-43)
(0.00013826091 -3.7082539e-05 -1.1155928e-25 1.9195741e-05 -6.4352289e-26 2.6870039e-44)
(0.00013987778 -2.9261254e-05 1.1387646e-23 1.2047397e-05 -5.00099e-24 2.1060169e-42)
(0.00014187485 -2.0497832e-05 -1.7541189e-24 6.0593624e-06 7.0330317e-25 1.4957307e-43)
(0.00014608448 -1.3001432e-05 7.2714129e-24 2.4145812e-06 -1.3711522e-24 8.0705648e-43)
(0.00015277367 -3.2979634e-06 1.5853732e-23 1.9095939e-07 -7.8478615e-25 3.3243175e-42)
(0.00013105717 -7.9270722e-05 -3.7017644e-24 7.687464e-05 4.9444174e-24 3.7874999e-43)
(0.0001581024 -7.3279907e-05 8.7228584e-25 6.2722011e-05 -1.5074568e-24 1.138256e-43)
(0.00015214963 -6.2840836e-05 1.3552476e-25 4.9546543e-05 -1.29424e-25 8.3220513e-46)
(0.00015518262 -5.4967759e-05 3.3149312e-26 3.8200718e-05 1.6916149e-25 7.3190873e-44)
(0.00015357008 -4.6439971e-05 9.7140223e-25 2.7989698e-05 -6.3086502e-25 1.4872826e-44)
(0.00015360298 -3.804361e-05 -3.166e-25 1.9068106e-05 -1.1778474e-25 7.7645161e-44)
(0.0001536495 -2.9694873e-05 -4.5742691e-24 1.1897719e-05 1.8242209e-24 2.8172179e-43)
(0.00015464515 -2.0598913e-05 -8.3413872e-24 5.9538748e-06 2.3066533e-24 9.0502801e-43)
(0.0001578699 -1.2943302e-05 -4.9713385e-24 2.3629961e-06 8.0934457e-25 2.8255118e-43)
(0.00016349116 -3.149781e-06 -1.413748e-24 1.8279062e-07 5.781987e-26 2.0332515e-44)
(0.00014833829 -9.1473365e-05 1.5903003e-24 9.2128679e-05 -2.4698798e-24 8.2801497e-44)
(0.00017959457 -8.4348296e-05 -4.4101027e-25 7.6890693e-05 5.7841779e-25 4.8258537e-44)
(0.00017164119 -7.2969784e-05 -2.5074859e-24 6.220448e-05 3.1394138e-24 2.1043229e-43)
(0.0001740009 -6.485108e-05 3.4204826e-24 4.9734244e-05 -3.2494449e-24 2.24629e-43)
(0.00017108202 -5.5983835e-05 -4.652025e-24 3.8063131e-05 3.871902e-24 5.5668186e-43)
(0.00016999198 -4.7641031e-05 1.2539133e-23 2.794684e-05 -7.9695173e-24 2.4042611e-42)
(0.00016828747 -3.8619301e-05 -1.682693e-25 1.8905406e-05 -3.8627294e-26 8.7643287e-45)
(0.0001673726 -2.9945232e-05 -1.3788263e-23 1.175661e-05 5.3501029e-24 2.5112009e-42)
(0.00016706037 -2.0464306e-05 7.1150108e-24 5.8295395e-06 -1.901988e-24 6.3978993e-43)
(0.00016905812 -1.2742146e-05 -1.6137897e-23 2.3059065e-06 2.5466532e-24 2.8880807e-42)
(0.00017363437 -2.9524809e-06 2.4975025e-24 1.7436944e-07 -1.1232644e-25 7.7323214e-44)
(0.00016769056 -0.00010441315 3.9524412e-25 0.00010908502 -1.8117181e-25 4.5667457e-45)
(0.00020422608 -9.5668989e-05 1.2480684e-24 9.2813195e-05 -1.9137572e-24 1.740845e-43)
(0.00019358389 -8.3217212e-05 2.6344504e-24 7.6457329e-05 -3.4747204e-24 1.7855238e-43)
(0.00019500142 -7.482182e-05 0 6.2791695e-05 0 0)
(0.00019059281 -6.5810487e-05 -1.1932641e-25 4.9733848e-05 7.9757489e-26 4.4250242e-46)
(0.00018857126 -5.7399423e-05 6.2579688e-25 3.8211153e-05 1.8451976e-26 1.0393685e-43)
(0.0001856589 -4.8408787e-05 2.9074447e-24 2.7836939e-05 -1.7112584e-24 1.1020178e-43)
(0.0001831186 -3.9037944e-05 7.3831097e-24 1.8778228e-05 -3.4705688e-24 6.6383753e-43)
(0.00018075571 -2.9867945e-05 1.2939845e-24 1.157148e-05 2.2643748e-27 9.7952287e-44)
(0.00017896547 -2.0117536e-05 9.8412544e-24 5.6964143e-06 -2.425067e-24 1.0664494e-42)
(0.00017968692 -1.2371012e-05 6.8480348e-24 2.2373732e-06 -1.0444521e-24 5.0768976e-43)
(0.00018293501 -2.7106971e-06 -1.6820019e-24 1.6594442e-07 6.1334065e-26 2.6328946e-44)
(0.00018942714 -0.00011813196 8.3167329e-26 0.00012809426 3.2304991e-26 4.5563329e-46)
(0.00023267296 -0.00010713699 -4.79696e-25 0.00011089324 1.1733476e-25 3.7847828e-44)
(0.00021841871 -9.3403635e-05 0 9.2599056e-05 0 0)
(0.00021839944 -8.471096e-05 0 7.7659868e-05 0 0)
(0.0002120218 -7.5637321e-05 1.807149e-24 6.3001603e-05 -1.8458139e-24 8.1824679e-44)
(0.00020912041 -6.747978e-05 -1.5741577e-24 5.0184058e-05 2.0393316e-24 4.1785141e-43)
(0.00020518562 -5.8388897e-05 5.8179695e-24 3.8232203e-05 -4.4000151e-24 7.0143282e-43)
(0.00020174467 -4.9106985e-05 -9.146409e-24 2.7812122e-05 4.8266488e-24 8.5367845e-43)
(0.00019764148 -3.904894e-05 -9.1085674e-25 1.857552e-05 3.3839938e-25 6.866885e-45)
(0.00019378044 -2.9520256e-05 -2.0582136e-26 1.1371853e-05 4.5590357e-28 1.4706676e-47)
(0.00019032841 -1.9498351e-05 -1.1983574e-23 5.5368335e-06 2.9361275e-24 1.6458006e-42)
(0.00018950848 -1.1837912e-05 1.2679393e-23 2.1614641e-06 -2.0285422e-24 2.0580639e-42)
(0.00019145778 -2.4214265e-06 -2.6884557e-23 1.575008e-07 1.0202126e-24 7.5799099e-42)
(0.00021394986 -0.000132711 -2.8603679e-24 0.00014963119 1.4485226e-24 1.2980086e-43)
(0.00026580556 -0.0001186359 1.1643954e-25 0.00013166112 1.4008568e-26 9.6423387e-46)
(0.00024671684 -0.00010336121 1.6816923e-25 0.00011111576 -1.5189594e-24 1.1211998e-43)
(0.00024459424 -9.4281935e-05 -9.5878265e-25 9.4709024e-05 1.8231443e-24 1.3334458e-43)
(0.00023549375 -8.5293435e-05 1.6489009e-24 7.8153856e-05 -2.0555391e-24 1.3499001e-43)
(0.00023135272 -7.7584982e-05 -7.8757292e-26 6.3884471e-05 4.0352335e-25 4.4903673e-44)
(0.00022664656 -6.8710294e-05 -2.4953687e-24 5.0435838e-05 1.721629e-24 6.0278939e-44)
(0.00022258005 -5.9467146e-05 -5.0458934e-26 3.8421146e-05 -2.6030768e-26 6.1558776e-46)
(0.00021759055 -4.9322823e-05 -1.0791966e-23 2.7663588e-05 4.7572099e-24 8.9112152e-43)
(0.00021203528 -3.8765702e-05 -1.0469641e-23 1.8363298e-05 3.5378985e-24 7.9822124e-43)
(0.00020629138 -2.8779098e-05 -3.5973264e-24 1.1112429e-05 1.1388974e-24 1.2198181e-43)
(0.00020094681 -1.8629618e-05 -1.0358739e-23 5.3624971e-06 2.1827235e-24 9.5408893e-43)
(0.00019855773 -1.1125762e-05 -7.0752615e-24 2.0753269e-06 9.1987381e-25 4.4528103e-43)
(0.00019898648 -2.0906274e-06 7.6778697e-24 1.4931802e-07 -2.717272e-25 5.9580107e-43)
(0.00024174589 -0.00014824332 7.7223166e-24 0.00017428361 -1.0091672e-23 8.283381e-43)
(0.0003047429 -0.00013006219 6.231173e-24 0.00015585594 -1.8558835e-24 1.0406895e-42)
(0.00027923713 -0.00011291858 1.030186e-24 0.00013270304 -1.8277769e-24 3.6224231e-44)
(0.00027411057 -0.0001033196 -1.7091009e-25 0.00011453003 1.3309723e-25 2.9253919e-45)
(0.00026129185 -9.4540472e-05 1.5675356e-25 9.557658e-05 -1.0012831e-25 2.2281916e-45)
(0.00025533711 -8.755912e-05 -2.9127582e-25 7.9587942e-05 -2.8246277e-25 8.965233e-44)
(0.00024958252 -7.9135046e-05 -2.5867771e-24 6.4438039e-05 1.9404485e-24 6.0875777e-44)
(0.0002453652 -7.0270174e-05 3.702598e-24 5.0977943e-05 -2.3232014e-24 1.0979273e-43)
(0.00023984376 -6.0002245e-05 5.0716281e-25 3.842833e-05 1.6328956e-25 2.7153137e-44)
(0.00023363951 -4.9249218e-05 1.3027056e-24 2.7524865e-05 -4.5151273e-25 1.1236935e-44)
(0.0002259655 -3.7968811e-05 2.3571479e-25 1.8049507e-05 -9.035578e-26 4.74035e-46)
(0.00021817814 -2.7693638e-05 1.8663676e-24 1.0821761e-05 -1.6676406e-25 4.0637347e-44)
(0.00021079879 -1.746939e-05 1.3898267e-23 5.1643356e-06 -2.9669277e-24 1.8508182e-42)
(0.00020662267 -1.0248108e-05 -6.670163e-24 1.9831773e-06 9.2936965e-25 4.7839293e-43)
(0.00020558679 -1.7188899e-06 5.8161709e-24 1.4157442e-07 -2.0358086e-25 3.6514794e-43)
(0.00027359467 -0.00016488156 7.5566772e-24 0.00020277415 -2.1495746e-24 6.7078472e-43)
(0.00035087764 -0.00014130171 -5.6028003e-24 0.00018445443 -1.3266276e-24 4.6909948e-43)
(0.00031700823 -0.00012191658 2.582719e-24 0.00015832019 -7.4371383e-25 2.0710471e-43)
(0.00030766736 -0.00011159213 -4.2926727e-25 0.00013797801 -1.6123512e-24 2.1375604e-43)
(0.00028981582 -0.00010319441 -8.7299321e-25 0.0001158807 2.1640141e-24 1.9955273e-43)
(0.00028124456 -9.7153315e-05 6.4338788e-24 9.7655891e-05 -7.1419931e-24 6.7587611e-43)
(0.00027394734 -8.9496522e-05 -4.8170561e-24 8.0504721e-05 5.6208927e-24 8.9668223e-43)
(0.00026965769 -8.1325147e-05 -8.7320334e-26 6.5465007e-05 -1.122994e-25 3.768353e-45)
(0.00026412698 -7.1289848e-05 2.8587621e-24 5.1255183e-05 -1.8182586e-24 6.79855e-44)
(0.00025776484 -6.0293844e-05 2.120321e-24 3.8489497e-05 4.1686771e-25 2.3712846e-43)
(0.0002493138 -4.8529556e-05 2.8263319e-23 2.7226763e-05 -1.2607886e-23 6.1402524e-42)
(0.00023945929 -3.67488e-05 -5.9106732e-24 1.7690419e-05 3.0785164e-24 6.7358266e-43)
(0.00022930529 -2.6175516e-05 -4.7725059e-24 1.0474681e-05 1.4242235e-24 2.0916751e-43)
(0.00021969292 -1.6045333e-05 -2.6108854e-24 4.9536876e-06 3.8573643e-25 4.308974e-44)
(0.00021374643 -9.2030073e-06 -1.068541e-24 1.8856064e-06 1.6934126e-26 1.2090633e-44)
(0.00021110103 -1.3128197e-06 -6.6078744e-24 1.3456161e-07 2.153495e-25 4.6206849e-43)
(0.00031074256 -0.00018286979 0 0.00023595735 0 0)
(0.00040609995 -0.00015225701 -1.2046701e-23 0.00021853105 2.9320345e-24 1.1007653e-42)
(0.00036130653 -0.00013017231 -1.247203e-24 0.00018919786 4.5606572e-24 1.4879427e-43)
(0.00034626675 -0.00011883957 0 0.0001661799 0 0)
(0.0003217249 -0.00011109742 0 0.00013995836 0 0)
(0.00030940632 -0.00010619153 0 0.00011866827 0 0)
(0.00029983427 -9.959797e-05 -5.076281e-25 9.8955531e-05 1.5701911e-25 1.2094531e-44)
(0.00029519039 -9.246506e-05 -7.1670435e-24 8.2152018e-05 5.5433734e-24 4.0530977e-43)
(0.0002900038 -8.2949692e-05 -1.9320025e-24 6.61619e-05 -1.5655557e-24 6.6299371e-43)
(0.00028411539 -7.2144464e-05 -9.332633e-24 5.1670279e-05 5.3846523e-24 5.9266959e-43)
(0.0002754557 -5.9797777e-05 -1.0622067e-24 3.832848e-05 -1.1129128e-25 3.2586302e-44)
(0.00026482571 -4.7316249e-05 -6.7488155e-24 2.6870638e-05 2.7300152e-24 3.0081213e-43)
(0.00025220962 -3.4945247e-05 -1.1778599e-25 1.7232149e-05 -1.8971418e-25 8.3227078e-45)
(0.00023952639 -2.4275346e-05 5.8912493e-24 1.0095911e-05 -1.5929683e-24 2.7985129e-43)
(0.00022762772 -1.4343005e-05 2.0903636e-24 4.7307311e-06 -2.3577027e-25 2.5106539e-44)
(0.00021976532 -8.008889e-06 3.445396e-24 1.7868833e-06 -4.3036794e-25 1.2071276e-43)
(0.00021560125 -8.7646488e-07 0 1.2854614e-07 0 0)
(0.00035322672 -0.00020256196 1.9935625e-23 0.00027487178 -1.3864847e-23 2.4696833e-42)
(0.00047340121 -0.00016287878 2.9758242e-23 0.00025961674 -1.106037e-24 4.0961729e-42)
(0.00041381843 -0.00013749984 -2.4935999e-23 0.00022692889 6.8356001e-24 5.7893697e-42)
(0.00039132075 -0.0001249179 -7.9470059e-24 0.00020068911 5.1516292e-24 1.4624138e-42)
(0.00035804424 -0.00011817227 -3.8543225e-24 0.00016907247 4.2182392e-25 9.8883042e-43)
(0.00034044874 -0.00011452882 0 0.0001434513 0 0)
(0.00032747496 -0.0001092281 -1.175327e-24 0.00012032619 -1.8815802e-24 9.4866012e-43)
(0.00032192984 -0.0001035058 1.4780777e-24 0.00010131792 2.7505359e-26 1.2400862e-43)
(0.0003170616 -9.489568e-05 -1.01057e-23 8.3399079e-05 1.0545332e-23 2.1111743e-42)
(0.00031224081 -8.454237e-05 -3.8429787e-24 6.712553e-05 -2.0219731e-24 1.1315996e-42)
(0.00030409935 -7.2061613e-05 6.1414403e-24 5.1799688e-05 -3.2755998e-24 2.2363663e-43)
(0.00029335818 -5.8748325e-05 -1.7880235e-24 3.8109438e-05 -7.5544745e-26 5.5869266e-44)
(0.0002796309 -4.5344669e-05 -1.2219736e-23 2.6354582e-05 5.8191706e-24 1.4080739e-42)
(0.00026415893 -3.2642903e-05 2.2101432e-23 1.67177e-05 -6.9762776e-24 3.3040257e-42)
(0.00024875716 -2.1951414e-05 6.9746134e-24 9.681424e-06 -1.0779845e-24 2.5568041e-43)
(0.00023444159 -1.239675e-05 2.5320745e-23 4.5062311e-06 -4.8814278e-24 6.2401452e-42)
(0.00022473937 -6.6784756e-06 9.8825953e-24 1.6899199e-06 -1.0980024e-24 8.8990921e-43)
(0.00021900259 -4.1686161e-07 8.0744805e-24 1.2378137e-07 -2.4290636e-25 7.5069693e-43)
(0.00039842323 -0.00022384041 -2.5384718e-24 0.0003201525 1.4979507e-24 3.661379e-44)
(0.00055382082 -0.00017390117 2.5424449e-23 0.00030924233 -4.715332e-24 2.0583286e-42)
(0.000477117 -0.00014339954 4.7551062e-24 0.00027372934 2.4188609e-24 1.7142259e-43)
(0.00044460442 -0.00012968236 -1.2009864e-23 0.00024345198 2.7709006e-24 1.8309479e-42)
(0.00040010057 -0.00012435326 9.7078275e-25 0.00020484537 -4.1691799e-25 2.5972369e-44)
(0.00037532274 -0.00012203022 4.00705e-24 0.00017315065 -6.9516233e-24 3.5548995e-43)
(0.00035740922 -0.00011823769 1.2333795e-23 0.00014536505 -7.7119537e-24 3.2590164e-42)
(0.00035003307 -0.00011422227 2.8114085e-24 0.00012345633 5.2691913e-24 4.1205819e-42)
(0.00034518393 -0.00010694521 6.3121582e-25 0.00010325284 2.3970168e-24 4.8484819e-43)
(0.00034170366 -9.7470679e-05 1.1857869e-23 8.5106286e-05 -7.2402961e-24 7.1803104e-43)
(0.00033477001 -8.5086587e-05 1.3207533e-24 6.7733584e-05 4.3687659e-25 6.5527443e-44)
(0.00032479661 -7.1372767e-05 1.523615e-23 5.1892945e-05 -8.2484812e-24 1.4146028e-42)
(0.00031062738 -5.6751146e-05 -2.6799179e-24 3.7659394e-05 3.1714765e-24 4.4936022e-43)
(0.00029380951 -4.2747878e-05 -2.2479949e-24 2.5746654e-05 2.9901914e-25 2.9500825e-44)
(0.00027508523 -2.9753825e-05 -3.6716032e-24 1.6132257e-05 4.6061971e-25 7.1704581e-44)
(0.00025685021 -1.9259433e-05 -4.3977448e-24 9.2532974e-06 1.1653724e-24 1.7110185e-43)
(0.00024016405 -1.021837e-05 8.3628882e-24 4.2867235e-06 -1.5781859e-24 7.1171253e-43)
(0.00022856846 -5.2342638e-06 1.9534324e-25 1.5986691e-06 4.817027e-26 3.8525964e-45)
(0.00022137056 5.9939055e-08 6.9392107e-24 1.2050882e-07 -2.1837824e-25 6.5947124e-43)
(0.00043572269 -0.0002468187 -2.2419812e-23 0.00037178534 1.4341296e-23 2.4514108e-42)
(0.00064332406 -0.00018613903 -4.842578e-23 0.00036942348 5.3051738e-24 5.4227324e-42)
(0.00055362603 -0.00014806777 1.146261e-22 0.00033167844 -1.5714454e-23 5.0377479e-41)
(0.00050854308 -0.00013291091 9.6455721e-24 0.00029736923 -5.9805656e-24 8.0953213e-43)
(0.0004497168 -0.00012971206 -2.4538439e-24 0.00024934631 -3.2688071e-24 2.3030123e-43)
(0.00041543848 -0.00012863542 1.5272326e-24 0.00020930728 -3.7197112e-24 8.9608248e-44)
(0.00039059951 -0.00012650558 -1.1510797e-24 0.00017514061 1.4969371e-25 6.9537769e-44)
(0.00037994157 -0.00012443448 6.7513176e-24 0.00014927777 -8.4727038e-24 6.8437184e-43)
(0.0003744286 -0.00011890436 6.2818853e-25 0.00012619199 9.7872976e-25 1.0350121e-43)
(0.00037223998 -0.00011074479 -6.3876436e-24 0.0001059188 1.2204801e-23 3.4101104e-42)
(0.00036714212 -9.8844349e-05 2.1191849e-23 8.6418038e-05 -1.3797324e-23 2.4300019e-42)
(0.00035861356 -8.4989327e-05 -5.270363e-24 6.8358383e-05 1.6859255e-24 1.2086966e-43)
(0.00034498799 -6.9525077e-05 -8.8147415e-24 5.1680054e-05 3.6739529e-24 3.3500297e-43)
(0.00032751934 -5.4000125e-05 8.0291964e-25 3.7077098e-05 -2.4399266e-25 2.6602707e-45)
(0.00030693191 -3.9370015e-05 -2.8242733e-24 2.5010985e-05 1.4945442e-25 5.4782447e-44)
(0.00028488055 -2.6360814e-05 -1.6084437e-23 1.5511484e-05 5.400704e-24 2.1743815e-42)
(0.00026377606 -1.6199896e-05 9.8013308e-25 8.8229536e-06 -1.0364139e-24 1.8830804e-43)
(0.00024468165 -7.847461e-06 -1.4690628e-23 4.082255e-06 2.4604138e-24 1.9781433e-42)
(0.00023131954 -3.6984593e-06 -3.5976226e-24 1.5166684e-06 3.6418818e-25 1.2408824e-43)
(0.00022269887 5.4699888e-07 -6.9337094e-24 1.1891726e-07 2.1380487e-25 7.159275e-43)
(0.00045182056 -0.00026813095 -3.9011984e-24 0.00042996277 4.5379559e-24 7.8113588e-44)
(0.00073146919 -0.00019920063 -1.167144e-22 0.0004411421 1.4885669e-23 2.4356149e-41)
(0.00064089637 -0.00015236018 -1.1949796e-23 0.00040378306 1.8026164e-23 1.4516202e-42)
(0.00058637115 -0.00013471807 -2.7302484e-23 0.00036538103 5.6418569e-24 3.4281967e-42)
(0.00050939656 -0.00013437958 3.4367517e-24 0.00030533657 -8.6121777e-24 4.0256709e-43)
(0.00046269007 -0.00013443621 6.2889434e-24 0.0002539326 -5.5173223e-25 8.4204546e-43)
(0.00042849978 -0.00013395735 -1.2432937e-23 0.00021111073 2.230541e-24 5.3298144e-42)
(0.00041250957 -0.0001339639 -1.7495009e-23 0.00017979634 -1.2828306e-24 1.5033031e-41)
(0.00040510658 -0.00013058024 -1.5615522e-23 0.00015292052 1.360561e-23 1.5530331e-42)
(0.00040385889 -0.00012421259 0 0.00013001473 0 0)
(0.00040080373 -0.00011321738 -1.531663e-23 0.00010816072 1.0757729e-23 1.2086108e-42)
(0.00039454777 -9.9526846e-05 -5.8183331e-24 8.7855289e-05 -1.7935842e-24 7.8693995e-43)
(0.00038216705 -8.3501704e-05 1.3952942e-23 6.8611481e-05 -1.0212905e-23 1.7155644e-42)
(0.00036513912 -6.6790423e-05 -2.6902444e-24 5.129757e-05 5.6088496e-24 1.1253593e-42)
(0.00034333728 -5.0253359e-05 9.4873006e-24 3.6291042e-05 -3.3134885e-24 3.9839025e-43)
(0.00031898019 -3.5327825e-05 -1.527721e-23 2.4198351e-05 5.6958991e-24 1.5661726e-42)
(0.00029341825 -2.2439867e-05 -4.8685712e-24 1.4870319e-05 2.1332287e-25 1.3264958e-43)
(0.00026941528 -1.283528e-05 3.7675856e-24 8.4111503e-06 -1.3536521e-24 2.6539854e-43)
(0.00024804915 -5.314919e-06 -7.319211e-24 3.9015109e-06 1.4699856e-24 7.2752547e-43)
(0.00023297072 -2.0960531e-06 -1.1374273e-24 1.4472319e-06 5.3242647e-26 7.2214216e-45)
(0.00022305096 1.03782e-06 -5.8981489e-24 1.1914963e-07 1.9357648e-25 6.3534804e-43)
(0.00042587132 -0.00028127472 1.6656124e-23 0.00049303027 -9.3560611e-24 3.1062568e-42)
(0.00076435464 -0.00022565492 -1.4181165e-22 0.00052551588 1.6472739e-23 3.2255687e-41)
(0.0007290729 -0.00015894308 -1.1831375e-22 0.00049371755 1.2143307e-23 2.8895235e-41)
(0.00067706622 -0.00013685239 8.0050239e-23 0.00045087043 -4.8466714e-24 1.909301e-41)
(0.00058304515 -0.00013825358 3.356706e-23 0.00037633317 -1.0212388e-23 6.5153447e-42)
(0.00051974833 -0.00013971754 -8.2505939e-25 0.0003095299 -5.2213259e-24 1.6392258e-43)
(0.00047312076 -0.00014057973 0 0.0002551938 0 0)
(0.00044906401 -0.00014263052 1.0508103e-23 0.00021642453 -1.4750324e-23 1.423509e-42)
(0.00043794823 -0.0001417881 1.1871728e-23 0.00018444034 -5.2893982e-24 1.638721e-42)
(0.00043679111 -0.00013770579 -1.1560563e-23 0.00015809173 1.9368874e-23 4.5503172e-42)
(0.00043575612 -0.00012808203 -1.0414949e-23 0.00013341033 5.3104976e-24 4.3638767e-43)
(0.00043221044 -0.00011493559 -1.7088995e-24 0.00011069313 -2.125613e-24 2.4867537e-43)
(0.00042196996 -9.8605129e-05 1.4618527e-24 8.8864748e-05 2.726004e-25 2.9239423e-44)
(0.00040611504 -8.0989647e-05 -8.5088683e-24 6.867626e-05 4.1117317e-24 2.9732255e-43)
(0.00038423372 -6.2826263e-05 5.9581847e-24 5.0616518e-05 -4.6977909e-24 5.2663244e-43)
(0.00035820252 -4.5664794e-05 -5.5413874e-24 3.5364395e-05 3.6566144e-24 4.4972424e-43)
(0.00032967042 -3.0557536e-05 2.1059645e-24 2.3325109e-05 -7.0946543e-25 2.6904881e-44)
(0.00030058813 -1.8078547e-05 -1.0713779e-23 1.4242134e-05 3.2599803e-24 9.4101843e-43)
(0.00027378634 -9.198854e-06 -4.3672601e-24 8.0362264e-06 2.8471588e-25 8.7094778e-44)
(0.00025022009 -2.6636944e-06 -7.9150109e-25 3.7527525e-06 2.0549661e-26 3.1326279e-45)
(0.00023358473 -4.523868e-07 -3.4689041e-24 1.3932302e-06 4.4848936e-25 2.0952721e-43)
(0.00022247828 1.525429e-06 0 1.212508e-07 0 0)
(0.00034723583 -0.00027927977 -3.4697899e-24 0.0005572536 5.9702016e-24 5.0077056e-43)
(0.00070817093 -0.00027378611 9.292647e-23 0.00062478875 -1.3767254e-23 1.4992078e-41)
(0.00079057435 -0.00017919965 2.8597466e-25 0.00060258284 -4.6505468e-24 4.7641525e-44)
(0.00077232981 -0.00014278422 1.278931e-22 0.00055847747 -2.4752569e-23 3.602692e-41)
(0.00067204429 -0.00014283812 3.7343421e-23 0.00046556336 -1.9848842e-23 6.1324242e-42)
(0.00059075954 -0.00014462026 -1.563149e-23 0.00037990312 2.2563885e-24 1.6160539e-42)
(0.00052721627 -0.00014643922 -3.3155503e-24 0.00030976154 1.7452793e-23 1.5033709e-42)
(0.00049153118 -0.0001502699 -1.4174314e-23 0.00026105147 -4.6527212e-24 6.7453401e-42)
(0.0004741639 -0.00015233214 1.9378133e-24 0.00022218208 -6.4599288e-24 4.687714e-43)
(0.00047166458 -0.00015107849 -1.5810129e-24 0.00019115463 -8.8445085e-26 5.0812132e-44)
(0.00047222393 -0.00014331602 5.9040752e-25 0.00016284105 -3.6081663e-26 3.7803585e-45)
(0.00047156274 -0.00013108573 8.644327e-24 0.0001373354 3.7060775e-24 1.7228674e-42)
(0.00046410554 -0.00011477734 2.3539578e-24 0.00011279351 -1.5645088e-24 2.4670221e-44)
(0.00045022339 -9.654371e-05 -2.7925355e-23 8.9695101e-05 5.463816e-24 3.0095312e-42)
(0.00042907346 -7.7001879e-05 -2.3181768e-23 6.8339447e-05 9.9244791e-24 1.9316805e-42)
(0.00040256378 -5.7829535e-05 -1.7220874e-23 4.9707965e-05 7.9132278e-24 1.4875027e-42)
(0.0003716057 -4.0117483e-05 4.096011e-24 3.4309112e-05 -5.0994447e-25 6.229006e-44)
(0.00033892817 -2.5172766e-05 2.0624143e-23 2.2439348e-05 -7.382329e-24 3.0383199e-42)
(0.00030633899 -1.3303093e-05 -9.5663603e-26 1.365804e-05 -2.77365e-25 9.6944715e-45)
(0.00027682078 -5.3575745e-06 -4.9496902e-24 7.7162075e-06 1.2503012e-24 2.8132113e-43)
(0.00025125888 6.6029761e-08 0 3.643238e-06 0 0)
(0.00023320267 1.2061716e-06 6.7913269e-24 1.3566104e-06 -9.5976247e-25 1.0354488e-42)
(0.00022104663 2.0038899e-06 2.7293554e-25 1.2526293e-07 8.0963211e-28 4.1330602e-46)
(0.00024584392 -0.00025797222 -1.3449866e-23 0.00061852187 2.4613424e-23 2.1594349e-41)
(0.00059264548 -0.00033020872 2.4651592e-22 0.00073489155 -3.3096324e-23 1.4106809e-40)
(0.00075611086 -0.00023703851 -2.1261242e-22 0.00072947561 2.4623985e-23 7.6995513e-41)
(0.0008541858 -0.00016513093 -7.8785191e-23 0.00068934232 -4.0131551e-24 1.0320574e-41)
(0.00077096677 -0.00015066206 1.1388328e-22 0.00057810673 -1.3499536e-23 3.1986845e-41)
(0.00067922414 -0.00015018468 0 0.00046792487 0 0)
(0.00059485007 -0.00015171011 -2.2569227e-25 0.00037834942 5.0024907e-24 1.0341114e-43)
(0.0005426076 -0.0001567552 -3.5645927e-24 0.00031608524 -1.1312254e-23 1.4579317e-42)
(0.00051555723 -0.00016199588 -1.2905374e-23 0.00026809889 -8.7059601e-25 3.7648571e-42)
(0.00050955111 -0.00016418767 -2.9090905e-23 0.00023064659 8.7265195e-24 8.8094914e-42)
(0.00051080293 -0.00015882835 -1.0223659e-23 0.00019742737 1.3874373e-23 1.3680834e-42)
(0.00051287664 -0.00014788162 -1.1271411e-24 0.00016841638 8.1040975e-24 1.0243436e-42)
(0.00050845263 -0.00013188129 4.5430007e-24 0.0001408904 -1.0456992e-23 1.3643574e-42)
(0.0004972852 -0.00011331898 -1.720507e-23 0.0001148183 1.2198767e-23 1.4504293e-42)
(0.00047765586 -9.2759652e-05 2.2956614e-23 9.0029318e-05 -1.5957108e-23 3.1515774e-42)
(0.0004515271 -7.1788933e-05 4.3618583e-23 6.7670497e-05 -1.9114082e-23 7.0222967e-42)
(0.0004193503 -5.1614502e-05 7.3099881e-24 4.8566185e-05 3.1985764e-24 1.0589425e-42)
(0.00038356158 -3.374462e-05 8.9382761e-24 3.3185368e-05 -3.6385569e-24 4.9638733e-43)
(0.00034659261 -1.918283e-05 -1.8240172e-23 2.1589604e-05 8.4934104e-24 4.1114228e-42)
(0.00031059446 -8.2093797e-06 -6.9862917e-27 1.3147989e-05 -2.0687046e-24 4.888053e-43)
(0.00027857331 -1.3652889e-06 8.5689914e-24 7.4676903e-06 -2.6552109e-24 1.3134894e-42)
(0.0002511893 2.831134e-06 -5.6276595e-24 3.5783782e-06 1.6287139e-24 1.0836533e-42)
(0.00023189808 2.854313e-06 2.7253992e-24 1.3384797e-06 -6.5272527e-25 4.7116562e-43)
(0.00021881862 2.4705026e-06 2.1131821e-25 1.3140648e-07 1.016683e-27 2.4876528e-46)
(0.00016221507 -0.00021897036 1.0741213e-23 0.00067246403 -2.5021751e-23 1.9202473e-42)
(0.00045757124 -0.00038515258 1.6593864e-22 0.00085207051 -4.9960182e-23 1.0087844e-40)
(0.0006456825 -0.00033623687 4.0327093e-23 0.00086683001 -4.6606449e-23 4.7632338e-42)
(0.00085672209 -0.00023336296 5.2807147e-22 0.00083931024 -8.5371824e-23 4.2595667e-40)
(0.00086718144 -0.00017212683 -1.0280767e-22 0.00071591358 3.2718957e-25 1.8904255e-41)
(0.00078199044 -0.00015824724 1.1857246e-22 0.00057832549 -1.1563304e-23 3.88331e-41)
(0.00068090828 -0.00015659945 4.1640309e-25 0.00046413306 6.0375959e-24 1.2339306e-43)
(0.00060612387 -0.00016212718 4.1385183e-23 0.00038480618 2.8108451e-24 1.6344947e-41)
(0.00056462076 -0.00017055322 2.7730132e-24 0.0003247204 -1.2972421e-23 8.9522505e-43)
(0.00055208581 -0.0001768717 -5.4201693e-24 0.00027857441 -3.8298527e-24 1.091475e-42)
(0.00055254905 -0.00017457635 -1.5469782e-23 0.0002385728 1.6162309e-23 1.415806e-42)
(0.00055680592 -0.00016524439 -1.3472626e-23 0.00020485586 -8.6185102e-24 4.6668322e-42)
(0.00055534185 -0.00014979513 -1.1804115e-23 0.00017377955 1.0500527e-23 7.3331979e-43)
(0.00054717333 -0.00013120733 1.4977384e-24 0.0001445747 3.538193e-25 2.1901341e-44)
(0.00052980975 -0.0001099528 3.007554e-23 0.00011626458 -1.2938913e-23 2.4745959e-42)
(0.00050490614 -8.7564811e-05 1.6678119e-24 8.9922483e-05 -2.0761192e-24 6.2071834e-44)
(0.00047241158 -6.5084232e-05 1.2667005e-24 6.6619634e-05 7.9578805e-25 3.8856432e-44)
(0.00043473631 -4.4323389e-05 1.5909323e-23 4.7259479e-05 -7.236045e-24 1.3714449e-42)
(0.00039373183 -2.6529968e-05 0 3.2063458e-05 0 0)
(0.00035259209 -1.2712558e-05 3.0956701e-24 2.0821387e-05 -6.7884323e-25 4.3590846e-44)
(0.00031336817 -2.8591408e-06 7.2225374e-25 1.2743672e-05 -1.4086144e-25 3.1304149e-45)
(0.00027904198 2.7103046e-06 -1.0813873e-24 7.3030434e-06 1.9022874e-25 1.002356e-44)
(0.00025008411 5.5912739e-06 -1.0116209e-24 3.5620371e-06 -1.0910152e-25 9.7244147e-45)
(0.00022975528 4.4692359e-06 -4.4524275e-24 1.3392064e-06 8.7197167e-25 9.554936e-43)
(0.00021587195 2.9205809e-06 -1.4152662e-24 1.3958119e-07 1.2030969e-25 2.4322608e-43)
(0.00012761641 -0.00016694035 5.3533228e-24 0.00071790666 -6.6127706e-24 1.2757702e-41)
(0.00037247395 -0.00043068107 -6.4825849e-23 0.00096954712 4.2425552e-23 3.03626e-41)
(0.00054023156 -0.000457316 -6.5000173e-23 0.0010104734 3.2115789e-23 1.0766784e-41)
(0.00077316404 -0.00036468105 -6.6195768e-23 0.00099989544 1.5683606e-23 7.2429562e-42)
(0.00092123258 -0.00023348578 -4.2749235e-22 0.00087447171 6.7267458e-23 2.7390901e-40)
(0.00089204595 -0.00017530494 -1.9138113e-23 0.00071445811 1.9934762e-23 1.4505232e-42)
(0.00078402153 -0.00016257578 1.2573829e-24 0.00057131622 8.2449242e-24 1.8556836e-43)
(0.00068749348 -0.00016602714 -3.9697789e-24 0.00047108063 -5.4571099e-25 9.4215968e-44)
(0.00062481902 -0.00017791295 -2.9097364e-23 0.00039532588 -4.3725416e-24 9.2966976e-42)
(0.0006016105 -0.00018898181 -1.1733502e-23 0.00033759914 1.6702888e-23 1.27311e-42)
(0.0005990812 -0.00019054558 -2.7723177e-24 0.00028824977 -1.0050845e-23 1.6665386e-42)
(0.00060450513 -0.00018317368 3.6821736e-24 0.00024795947 6.3554842e-26 1.1435188e-43)
(0.0006055104 -0.00016837809 9.2607119e-24 0.00021233514 4.4660798e-24 1.3192769e-42)
(0.00060018382 -0.00015000599 8.2972947e-24 0.00017965574 -4.9065724e-24 1.9662019e-43)
(0.00058550186 -0.00012843121 7.5011216e-24 0.00014768633 1.0553236e-24 3.6782094e-43)
(0.00056248091 -0.00010506751 -4.6780163e-23 0.00011715246 1.8089161e-23 5.4665276e-42)
(0.00053065931 -8.0604977e-05 -7.3752781e-23 8.9240293e-05 1.7082487e-23 1.3701527e-41)
(0.00049200615 -5.7026892e-05 -2.5558655e-23 6.5257518e-05 1.2827721e-23 3.1079499e-42)