/*--------------------------------*- C++ -*----------------------------------*\
  =========                 |
  \\      /  F ield         | OpenFOAM: The Open Source CFD Toolbox
   \\    /   O peration     | Website:  https://openfoam.org
    \\  /    A nd           | Version:  8
     \\/     M anipulation  |
\*---------------------------------------------------------------------------*/
FoamFile
{
    version     2.0;
    format      ascii;
    class       volScalarField;
    location    "399.966377299886858";
    object      k;
}
// * * * * * * * * * * * * * * * * * * * * * * * * * * * * * * * * * * * * * //

dimensions      [0 2 -2 0 0 0 0];

internalField   nonuniform List<scalar> 
9200
(
0.00015006401
0.00015026112
0.00015007483
0.00015050219
0.00015026078
0.00015003455
0.00015083646
0.00015049256
0.00015021681
0.00015000256
0.00015126673
0.00015082257
0.00015044787
0.00015018096
0.00014996074
0.00015182628
0.00015125224
0.00015077928
0.00015040984
0.00015013359
0.00014991889
0.00015255989
0.0001518163
0.00015121757
0.00015074058
0.00015035806
0.00015008557
0.00014987867
0.00015353928
0.00015256032
0.00015179966
0.00015118472
0.0001506838
0.00015030413
0.0001500394
0.00014984651
0.00015492149
0.00015356252
0.00015257447
0.00015178254
0.00015112614
0.0001506213
0.00015025191
0.00015000269
0.00014982625
0.00015699771
0.00015496964
0.00015362083
0.00015258486
0.00015172835
0.00015105361
0.00015055882
0.00015021057
0.00014997997
0.00014982137
0.000160084
0.00015703675
0.00015507908
0.00015366965
0.00015254091
0.00015164491
0.00015097541
0.00015050807
0.00015018558
0.00014997337
0.00014983281
0.000164554
0.0001600791
0.0001571894
0.00015516829
0.00015363643
0.0001524438
0.00015154347
0.00015090781
0.00015047613
0.00015017941
0.0001499838
0.00014985585
0.00017149773
0.00016443246
0.00016023004
0.00015728985
0.00015513741
0.00015351642
0.00015230885
0.00015144812
0.00015086093
0.00015046739
0.00015019368
0.00015000681
0.00014988484
0.00018365964
0.00017094278
0.00016451833
0.0001603
0.00015723299
0.00015497731
0.00015333458
0.00015217246
0.00015137455
0.0001508447
0.00015048338
0.00015022093
0.00015003561
0.00014991489
0.00020573463
0.00018253624
0.0001708468
0.0001645166
0.0001601667
0.00015700181
0.00015473008
0.00015314217
0.00015205942
0.00015134181
0.0001508607
0.00015051385
0.00015025239
0.00015006454
0.00014994252
0.00023801484
0.00020585062
0.00018225167
0.0001707086
0.00016422679
0.00015980294
0.00015665401
0.00015446078
0.00015297828
0.000152
0.00015135258
0.0001508945
0.00015054694
0.00015028128
0.00015008994
0.00014996584
0.00027730309
0.00024134826
0.00020594774
0.00018195787
0.00017008316
0.00016361301
0.00015929035
0.00015627229
0.00015422776
0.00015288149
0.00015199956
0.00015138726
0.00015092968
0.00015057416
0.00015030391
0.00015011031
0.00014998449
0.00031540402
0.00028321506
0.0002443622
0.00020571015
0.00018044772
0.00016891097
0.00016281253
0.00015874207
0.00015593757
0.00015407748
0.00015286137
0.00015203137
0.00015142327
0.00015095498
0.0001505917
0.00015031952
0.00015012594
0.00014999922
0.00034450167
0.00032153692
0.00028811689
0.00024582003
0.00020238865
0.00017760887
0.00016750091
0.00016199566
0.00015825791
0.00015570644
0.0001540194
0.00015287923
0.00015206336
0.00015144509
0.00015096617
0.0001505999
0.00015032956
0.00015013828
0.00015001161
0.00036278505
0.00034781234
0.00032551844
0.00029011504
0.00024067811
0.00019556266
0.00017440733
0.00016617355
0.00016129139
0.00015789281
0.00015556569
0.00015399872
0.00015289135
0.00015207476
0.00015144802
0.00015096513
0.00015060197
0.00015033674
0.0001501493
0.0001500234
0.00037306485
0.00036081449
0.00034865504
0.0003259495
0.00028391537
0.00022766456
0.00018751133
0.00017173058
0.00016510704
0.00016074781
0.0001576397
0.00015546845
0.00015396563
0.00015287818
0.00015206431
0.00015143615
0.00015095737
0.00015060246
0.00015034409
0.00015016098
0.00015003609
0.00038085786
0.00036447793
0.00035836597
0.00034735704
0.00031901658
0.00026855426
0.00021120635
0.00018069272
0.00016987814
0.00016431375
0.00016033909
0.0001574435
0.00015537261
0.00015390929
0.000152843
0.00015204046
0.00015141837
0.00015094974
0.00015060584
0.00015035431
0.00015017496
0.00015005089
0.00038979965
0.00036725051
0.00035932146
0.00035903392
0.00034162126
0.00030429573
0.00024679011
0.00019681055
0.00017644061
0.00016864775
0.000163712
0.00016001008
0.00015725653
0.00015525788
0.00015383557
0.00015279854
0.00015201491
0.00015140393
0.00015094847
0.00015061556
0.00015036933
0.00015019239
0.00015006865
0.00040096137
0.00037233157
0.00036286858
0.00036621391
0.00035826966
0.00033098144
0.00028272479
0.00022253156
0.00018714025
0.00017404333
0.00016780768
0.00016323986
0.00015971195
0.00015705845
0.00015513152
0.00015376054
0.00015275865
0.00015199742
0.00015139998
0.00015095776
0.00015063353
0.0001503901
0.00015021388
0.00015008986
0.00041379245
0.00038003524
0.00036992223
0.00037581486
0.00037638737
0.00035354771
0.00031425932
0.00025637524
0.00020385108
0.00018162692
0.00017267774
0.0001671882
0.00016283232
0.00015941464
0.00015685556
0.00015501261
0.000153699
0.00015273275
0.0001519935
0.00015141059
0.00015097923
0.00015066015
0.00015041672
0.00015023958
0.00015011463
0.00042718111
0.00038926911
0.00037958635
0.00039154641
0.00039806471
0.00037903721
0.00034322582
0.0002916293
0.00022972517
0.00019301644
0.00017879703
0.0001717993
0.00016667672
0.0001624337
0.00015911645
0.00015666881
0.00015491795
0.00015365966
0.00015272501
0.00015200497
0.00015143669
0.00015101223
0.00015069449
0.00015044856
0.00015026918
0.00015014274
0.00044036493
0.00039875324
0.00038887552
0.00040846105
0.00042316468
0.0004097837
0.00037427091
0.00032880911
0.00026591386
0.00021307767
0.00018825965
0.00017740537
0.00017110278
0.00016616394
0.00016202452
0.00015883723
0.00015651798
0.00015485641
0.00015364497
0.00015273614
0.00015203295
0.00015147641
0.00015105451
0.00015073473
0.0001504845
0.00015030208
0.00015017368
0.000452888
0.00040781815
0.00039638183
0.00042264082
0.00044873549
0.00044481266
0.00040965953
0.00036814024
0.00031235795
0.00024742008
0.00020767343
0.00018733485
0.00017675432
0.00017036122
0.00016559877
0.00016162076
0.00015860106
0.00015641367
0.00015482834
0.00015365308
0.00015276415
0.00015207513
0.00015152592
0.00015110288
0.00015077858
0.00015052319
0.00015033746
0.00015020669
0.000464483
0.0004163341
0.00040192941
0.00043253859
0.00047031105
0.00048071061
0.00044924058
0.00040716894
0.00036150823
0.00030042512
0.00024628383
0.00021064037
0.00018866138
0.00017625039
0.00016948436
0.00016499555
0.00016125473
0.00015842377
0.00015635502
0.00015482792
0.00015367978
0.0001528046
0.0001521257
0.00015158037
0.00015115377
0.00015082381
0.0001505631
0.00015037421
0.00015024084
0.00047500865
0.00042436553
0.00040608958
0.00043837772
0.00048544609
0.0005122423
0.00049044747
0.00044528596
0.00040402807
0.00035697419
0.00030639685
0.00025962563
0.00021877468
0.00019033475
0.0001753343
0.00016849374
0.00016440588
0.00016095369
0.00015830596
0.00015633165
0.00015484703
0.00015371823
0.00015285128
0.00015217761
0.00015163451
0.00015120382
0.00015086832
0.00015060253
0.00015041114
0.00015027509
0.00048523517
0.00043194904
0.0004095069
0.00044137868
0.00049442713
0.00053652379
0.0005295852
0.00048215014
0.00043915785
0.00039656878
0.00035823219
0.00032428674
0.00027962898
0.0002267915
0.00019009088
0.00017377665
0.00016747616
0.00016387924
0.00016072486
0.00015823396
0.00015633027
0.000154876
0.00015376082
0.00015289866
0.00015222475
0.00015168438
0.00015125032
0.00015091006
0.00015064019
0.00015044721
0.00015030845
0.0004941151
0.0004397943
0.00041273829
0.00044268062
0.00049857322
0.00055339988
0.00056407812
0.0005173547
0.00046805664
0.00042222108
0.00038595532
0.00036306634
0.00033911829
0.00029376293
0.00022827264
0.00018697132
0.00017183031
0.00016654286
0.000163436
0.00016055375
0.00015818798
0.00015633725
0.0001549067
0.00015380162
0.00015294239
0.00015226595
0.00015172716
0.00015129115
0.00015094733
0.00015067525
0.00015048145
0.00015033998
0.00050099285
0.00044772659
0.00041651251
0.00044326421
0.00049942057
0.00056368709
0.00059272845
0.00055042937
0.00049278579
0.0004382269
0.00039565201
0.00037484355
0.00036470555
0.00034413978
0.00029400649
0.00022117782
0.00018192286
0.00016995467
0.00016575874
0.00016306617
0.00016041331
0.00015814941
0.00015634318
0.00015493277
0.00015383603
0.00015297873
0.0001523002
0.00015176113
0.00015132492
0.00015097949
0.00015070672
0.000150513
0.0001503689
0.00050551749
0.00045536526
0.00042051507
0.00044413242
0.00049830764
0.00056900374
0.000615207
0.000580668
0.00051477844
0.00044974173
0.00039614589
0.00036908873
0.00036358739
0.00035931897
0.00033865648
0.00028162591
0.00020817756
0.00017680176
0.00016844175
0.00016512584
0.00016274144
0.00016027952
0.00015810617
0.00015634038
0.00015494889
0.00015386038
0.00015300549
0.00015232656
0.00015178601
0.00015135137
0.00015100622
0.00015073407
0.00015054124
0.00015039461
0.00050751919
0.00046251775
0.00042573618
0.00044438744
0.0004958044
0.00057064928
0.00063218599
0.00060743978
0.00053464882
0.00045941552
0.00039533677
0.00035806869
0.00034903592
0.00035093765
0.00034953374
0.00032538957
0.00025946866
0.00019411595
0.00017290749
0.00016732376
0.00016460291
0.00016243724
0.00016013696
0.00015804842
0.00015632242
0.00015495084
0.00015387212
0.00015302158
0.00015234435
0.00015180381
0.00015137063
0.00015102742
0.00015075706
0.00015056575
0.00015041672
0.00050698912
0.00046896234
0.00043240015
0.00044658952
0.00049117835
0.0005671564
0.00064547505
0.00063035558
0.00055262426
0.00046822189
0.00039535383
0.00035098353
0.00033276916
0.00033577568
0.00034017033
0.0003393366
0.00030537933
0.00023091804
0.00018308861
0.00017040577
0.00016647825
0.00016414568
0.00016213543
0.0001599736
0.00015796841
0.00015628456
0.00015493592
0.00015387005
0.0001530266
0.0001523533
0.00015181486
0.00015138305
0.00015104333
0.00015077558
0.00015058629
0.00015043502
0.0005041241
0.00047453687
0.00044073588
0.00045099774
0.00048778042
0.00055858418
0.0006509695
0.00065082295
0.00056877489
0.00047644937
0.00039669971
0.00034744011
0.00032607066
0.0003233551
0.00032852972
0.00033462128
0.00032781015
0.00027833886
0.0002059993
0.0001762712
0.00016881762
0.00016578797
0.00016372183
0.00016182159
0.00015978119
0.00015786116
0.00015622417
0.00015490311
0.00015385404
0.00015302078
0.00015235397
0.00015181958
0.00015139028
0.00015105423
0.00015078971
0.00015060282
0.0001504495
0.00049934596
0.00047918777
0.00045085944
0.00045808458
0.00048609994
0.00054918087
0.00064769379
0.00067114725
0.00058320393
0.00048379906
0.00039912954
0.00034729268
0.00032500496
0.00031952148
0.00032310324
0.00032796211
0.00033237299
0.00031025651
0.00024519263
0.0001891066
0.00017249315
0.00016770883
0.00016518642
0.00016331024
0.00016148666
0.00015955595
0.00015772468
0.00015614082
0.0001548529
0.00015382486
0.00015300501
0.00015234708
0.00015181839
0.00015139286
0.00015106047
0.00015079966
0.00015061543
0.0001504603
0.00049326326
0.00048302872
0.00046283401
0.00046808744
0.00048656036
0.00053962102
0.00064015086
0.00068383654
0.00060217205
0.00049128772
0.00040155187
0.00034889881
0.00032839072
0.00032315466
0.00032487189
0.00032767041
0.00033189696
0.00032716472
0.00028349616
0.00021359028
0.00017952214
0.00017032574
0.00016684639
0.00016463719
0.00016289857
0.00016112682
0.00015929826
0.0001575598
0.00015603597
0.0001547869
0.00015378401
0.00015298063
0.00015233345
0.00015181187
0.00015139119
0.0001510624
0.0001508057
0.00015062434
0.00015046766
0.00048666823
0.00048636098
0.00047670481
0.00048109986
0.0004893753
0.00053028984
0.00062903098
0.00068950217
0.0006198486
0.00050272152
0.00040529975
0.00035096446
0.00033319297
0.00033050343
0.00033215997
0.00033387986
0.00033529756
0.00033575896
0.00031140051
0.00024825436
0.00019304592
0.00017454551
0.00016894101
0.00016611584
0.00016411921
0.00016247813
0.00016074198
0.00015901184
0.00015736979
0.00015591259
0.00015470761
0.00015373346
0.00015294894
0.00015231397
0.00015180063
0.00015138572
0.0001510609
0.00015080818
0.00015062984
0.00015047189
0.0004896719
0.00048044876
0.00049253946
0.00049703002
0.00049450571
0.00052168739
0.00061464387
0.00068867463
0.00063406701
0.0005151626
0.00041125789
0.0003545673
0.00033843189
0.00033872952
0.00034212822
0.00034429606
0.00034388494
0.00034290193
0.00033149065
0.00028278539
0.0002150755
0.00018196437
0.00017189747
0.00016792845
0.00016546536
0.00016362076
0.00016203782
0.00016033482
0.00015870281
0.00015715977
0.00015577472
0.000154618
0.0001536754
0.00015291119
0.00015228956
0.00015178532
0.00015137683
0.00015105646
0.00015080747
0.00015063227
0.00015047335
0.00051046968
0.00049372929
0.00047582337
0.00051557805
0.00050165019
0.00051392106
0.00059786612
0.0006815717
0.00064307659
0.00052649307
0.00041908929
0.00035862604
0.00034364597
0.00034638952
0.00035228824
0.00035633189
0.00035589472
0.00035216043
0.00034690803
0.00031180348
0.00024408788
0.00019437884
0.00017649299
0.00017032079
0.00016710165
0.00016486724
0.00016313356
0.00016156725
0.00015991049
0.00015837874
0.00015693599
0.0001556269
0.00015452123
0.00015361162
0.0001528686
0.00015226108
0.00015176656
0.00015136496
0.00015104945
0.0001508039
0.000150632
0.00015047242
0.00053622381
0.00053083133
0.00049956941
0.00047286888
0.0005102714
0.00050700757
0.00057903352
0.00066874455
0.00064606815
0.00053580127
0.00042659727
0.00036288594
0.00034892556
0.00035304207
0.00036165696
0.00036795679
0.00036941694
0.00036418087
0.00036014909
0.00033721474
0.00027659216
0.00021265053
0.00018380095
0.00017372782
0.00016922694
0.00016638011
0.00016430381
0.00016264865
0.00016106882
0.00015947603
0.00015804774
0.00015670515
0.00015547375
0.00015442013
0.00015354379
0.00015282233
0.00015222933
0.00015174493
0.00015135058
0.00015104022
0.00015079812
0.00015062938
0.00015046946
0.00051985666
0.00055812133
0.00055400043
0.00050613311
0.00047185158
0.00049998107
0.00056070354
0.00064995031
0.00064293374
0.00054227677
0.00043379103
0.00036749946
0.00035182889
0.00036020801
0.00037013571
0.00037848409
0.00038268441
0.00037832776
0.00037301493
0.00035961936
0.00030875595
0.00023656261
0.00019490327
0.0001788515
0.00017216336
0.00016836057
0.00016572433
0.00016376125
0.00016215444
0.00016055021
0.00015903976
0.00015771774
0.00015647374
0.00015531949
0.00015431706
0.0001534734
0.00015277338
0.00015219504
0.00015172098
0.0001513341
0.00015102912
0.00015079062
0.00015062479
0.00015046482
0.00049395597
0.00052959645
0.000579831
0.00057542469
0.00051356328
0.00047287181
0.00053583075
0.00062803035
0.00063363183
0.000545271
0.00044054786
0.00037285665
0.00035685171
0.00036440896
0.00037771667
0.00038790362
0.00039510922
0.00039305057
0.00038647724
0.00037959402
0.00033890199
0.00026530588
0.00021059495
0.00018666316
0.00017650928
0.00017112478
0.00016761071
0.00016510784
0.00016322626
0.00016163657
0.00016002215
0.00015861038
0.00015739576
0.00015624745
0.00015516761
0.00015421401
0.00015340174
0.00015272264
0.00015215885
0.0001516952
0.00015131592
0.00015101647
0.00015078171
0.00015061855
0.00015045881
0.00051215006
0.00048911395
0.00053857888
0.00059971268
0.00059555682
0.00052183783
0.00047593097
0.00059960279
0.00061863032
0.00054460881
0.00044652417
0.00037938297
0.00036316645
0.0003710245
0.00038263935
0.00039465986
0.0004070739
0.00040761343
0.00040030782
0.00039763187
0.00036793763
0.00029778403
0.00023120861
0.00019821348
0.00018329904
0.00017530907
0.00017032327
0.00016692317
0.00016451091
0.00016268553
0.00016108115
0.00015949648
0.00015819553
0.00015708784
0.00015603121
0.00015502092
0.00015411256
0.00015332983
0.00015267081
0.0001521213
0.00015166801
0.00015129641
0.00015100258
0.00015077169
0.00015061124
0.0001504518
0.00056856369
0.00049135945
0.00048468457
0.00054576261
0.00061644306
0.00061309315
0.00053091618
0.00048080991
0.00059903186
0.00054041134
0.00045150018
0.0003872551
0.00037197339
0.00037970428
0.00038947767
0.00039797462
0.00041366562
0.00042463961
0.00041459975
0.00041350791
0.00039542778
0.00033282519
0.00025703875
0.00021435637
0.00019385553
0.00018215904
0.00017460731
0.00016962865
0.00016626543
0.00016391871
0.00016212598
0.00016048227
0.00015898534
0.0001578027
0.00015679953
0.00015582909
0.00015488147
0.00015401385
0.0001532584
0.00015261849
0.00015208286
0.00015163982
0.00015127588
0.00015098775
0.00015076081
0.00015060315
0.00015044421
0.00057613315
0.00053800556
0.0004731017
0.00047994981
0.00055033629
0.00062890148
0.00062805799
0.00054057447
0.00048704291
0.00053316517
0.00045547313
0.00039660529
0.00038380586
0.00039167507
0.00039833607
0.00040235868
0.00041539485
0.00043437777
0.00043377228
0.00042833852
0.000420196
0.00036890217
0.00028862503
0.00023627883
0.00020948886
0.00019342659
0.00018201026
0.00017411563
0.00016897525
0.0001656177
0.00016331498
0.00016153591
0.00015987848
0.00015850183
0.00015743907
0.0001565358
0.00015564427
0.0001547505
0.00015391854
0.00015318798
0.00015256614
0.00015204392
0.00015161094
0.00015125464
0.00015097223
0.0001507493
0.0001505945
0.00015043625
0.00052363821
0.00055170168
0.00050971114
0.00045684735
0.00047452689
0.00055187646
0.00063679745
0.00064040031
0.00055026607
0.00049397833
0.00045865392
0.00040763636
0.00039900975
0.00040772175
0.00041000904
0.00040803787
0.00041646933
0.00043756503
0.00044790563
0.00044435571
0.00044240213
0.0004033163
0.00032601101
0.00026534086
0.00023258049
0.00021124429
0.00019483664
0.000182273
0.00017369373
0.00016833004
0.00016494956
0.00016268526
0.00016091853
0.00015930154
0.00015805924
0.00015711183
0.0001563017
0.00015547848
0.00015462832
0.00015382693
0.00015311895
0.00015251411
0.00015200479
0.00015158167
0.00015123293
0.00015095624
0.00015073736
0.00015058547
0.00015042808
0.00046146616
0.0005129534
0.00052728255
0.00048442613
0.00044245268
0.00046825208
0.00055016648
0.00063980969
0.00064912399
0.00055930907
0.00050081408
0.00042061427
0.00041790624
0.00042828928
0.0004251177
0.00041533956
0.00041730368
0.0004378586
0.00045698726
0.00045738589
0.0004620363
0.00043527622
0.00036773832
0.00030138368
0.00026485834
0.00023970404
0.00021660923
0.00019703329
0.00018264186
0.00017326011
0.00016761265
0.00016423676
0.00016203289
0.00016029489
0.00015877726
0.00015767143
0.00015682972
0.00015610234
0.00015533124
0.00015451455
0.0001537391
0.00015305157
0.00015246265
0.00015196573
0.00015155224
0.00015121098
0.00015093998
0.00015072517
0.00015057624
0.00015041981
0.00043575737
0.00046463681
0.0005018735
0.00050437489
0.00046256764
0.00042984577
0.00046110935
0.00054513921
0.00063748403
0.00065339465
0.00056670724
0.00050612628
0.0004407116
0.00045342318
0.00044399714
0.00042497262
0.00041774115
0.00043606808
0.00046159256
0.00046859106
0.00047657364
0.00046290185
0.00040924135
0.00034196986
0.00030276404
0.00027907985
0.00025330707
0.00022399758
0.00019939947
0.00018287987
0.00017257809
0.00016676638
0.00016348591
0.00016137942
0.00015970307
0.00015832873
0.00015735211
0.00015660421
0.00015594018
0.0001552007
0.00015440845
0.00015365496
0.00015298593
0.00015241196
0.00015192696
0.00015152285
0.00015118895
0.00015092362
0.0001507129
0.00015056693
0.00015041145
0.00046724931
0.00045345276
0.00046854791
0.00049128785
0.00048417505
0.00044432675
0.0004189837
0.00045329438
0.0005370877
0.00062977287
0.00065226611
0.00057071211
0.00050982785
0.00048256449
0.00046644751
0.00043710426
0.00041880579
0.00043099003
0.00046312549
0.00047713863
0.00048774184
0.00048629743
0.00044175243
0.00038144612
0.00033903937
0.00031593394
0.00029787022
0.00026935155
0.00023209517
0.000201353
0.00018229591
0.00017149629
0.000165806
0.00016272971
0.00016076118
0.00015919035
0.00015797301
0.00015711165
0.00015643943
0.00015581208
0.00015508321
0.00015430903
0.00015357423
0.00015292203
0.00015236217
0.00015188862
0.00015149366
0.00015116704
0.00015090734
0.00015070068
0.00015055739
0.00015040123
0.00051424535
0.00049711664
0.00047305287
0.00047313871
0.00048202853
0.00046742019
0.00042968982
0.00040984249
0.00044509204
0.0005265576
0.0006171886
0.00064500849
0.00057147311
0.00051124753
0.00049158115
0.00045153349
0.00042102163
0.00042405624
0.00045878526
0.00048343023
0.00049624298
0.00050379562
0.00047257199
0.00041039067
0.00036279531
0.00033600725
0.00031796223
0.00030572185
0.00028098589
0.00023858453
0.00020103773
0.00018055877
0.00017006972
0.00016480098
0.00016201555
0.00016021935
0.00015879174
0.000157717
0.00015695148
0.00015633069
0.00015570346
0.00015497617
0.0001542152
0.00015349655
0.00015285986
0.00015231336
0.00015185086
0.00015146486
0.00015114542
0.00015089124
0.00015068816
0.00015054505
0.00015039074
0.00051787266
0.00054592172
0.00052785135
0.0004927208
0.00047850307
0.00047477908
0.00045441642
0.00041849119
0.00040232753
0.00043668996
0.00051432115
0.00060110596
0.00063368701
0.00056880561
0.00050935015
0.00046767398
0.00042467466
0.00041625187
0.00044942585
0.00048522025
0.00050160251
0.00051681782
0.0004967041
0.00044076626
0.00037667479
0.00034126426
0.00032134572
0.00030728821
0.0002992183
0.00027863339
0.00023925708
0.00019745497
0.00017802222
0.00016848452
0.00016383972
0.0001613899
0.00015978579
0.00015851241
0.0001575543
0.00015685424
0.00015625056
0.00015560527
0.00015487698
0.00015412593
0.00015342164
0.00015279939
0.00015226562
0.00015181383
0.00015143661
0.00015112419
0.00015087473
0.00015067024
0.00015053256
0.00015038021
0.00048464441
0.00054352257
0.00057467863
0.00055543254
0.00051125112
0.00048478386
0.00046998085
0.00044507085
0.0004104241
0.00039613482
0.00042814839
0.00050181656
0.0005856534
0.00061814738
0.000561704
0.00050292285
0.00042972599
0.00040829572
0.00043638795
0.00048127632
0.00050361453
0.00052418265
0.00051491955
0.00046628615
0.00039583253
0.0003422086
0.00032012475
0.00030989748
0.00030007933
0.00028816602
0.00026840059
0.00023322984
0.0001918073
0.00017520809
0.00016694324
0.0001629956
0.0001608833
0.00015947093
0.00015833985
0.0001574648
0.00015679337
0.00015617904
0.00015551516
0.00015478349
0.00015404045
0.00015334927
0.00015274063
0.00015221907
0.00015177769
0.00015140899
0.0001511024
0.0001508495
0.00015065224
0.00015052019
0.00015036971
0.00043588954
0.00050138065
0.00056703632
0.00059820474
0.00057690924
0.00052848784
0.00049210008
0.00046773461
0.00043907909
0.00040475171
0.00039079686
0.0004206537
0.00049092984
0.00056775588
0.0005979466
0.00054918532
0.00049092282
0.00040072898
0.00042050441
0.00047288636
0.0005013346
0.00052566446
0.00052648066
0.000485277
0.00041461313
0.00034808167
0.00031963618
0.00031879298
0.00031890987
0.0003076928
0.00028091245
0.00025664881
0.00022261344
0.0001858265
0.00017248269
0.00016559234
0.00016230777
0.00016050106
0.00015926053
0.00015824722
0.00015741943
0.0001567482
0.00015611193
0.00015543019
0.00015469416
0.00015395821
0.00015327927
0.00015268356
0.00015217378
0.00015174245
0.00015138067
0.00015106715
0.00015082449
0.00015063471
0.00015050797
0.00015035931
0.0003938635
0.00044245822
0.00051717744
0.00058643907
0.0006155151
0.00059385136
0.00054444097
0.00050017011
0.00046770006
0.00043555338
0.00040150168
0.00038532458
0.00041403595
0.0004796558
0.00054742928
0.00057313622
0.00053065742
0.00047268937
0.00040274897
0.00045867257
0.00049514986
0.00052153611
0.00053062337
0.00049729208
0.00042869321
0.00035528217
0.00031940876
0.00032349498
0.0003400294
0.00034483864
0.00031568452
0.0002735819
0.00024448534
0.00020983142
0.00018078104
0.00017012187
0.00016449471
0.00016177704
0.00016022352
0.00015912277
0.00015819873
0.00015739159
0.00015670629
0.00015604679
0.00015534809
0.000154608
0.00015387879
0.00015321145
0.00015262815
0.00015212973
0.0001517064
0.00015133299
0.00015103251
0.00015080042
0.00015061762
0.00015049596
0.00015034903
0.00038428738
0.00038792502
0.00044877671
0.00053044714
0.00060044816
0.00062743958
0.00060744683
0.00055816237
0.00050816608
0.00046941561
0.00043443729
0.00039636452
0.00038040903
0.00040780064
0.00046771224
0.00052527307
0.000544159
0.00050601775
0.00044895058
0.00043784409
0.00048489847
0.00051200442
0.00052736557
0.00050196422
0.00043744647
0.00035996068
0.00031583782
0.00032235986
0.00034220448
0.00036078165
0.00035595823
0.00031249546
0.00026263612
0.00023256635
0.00019688398
0.000177077
0.00016821522
0.00016364436
0.00016137433
0.00016001539
0.00015901914
0.00015816105
0.00015736478
0.00015666212
0.00015598122
0.00015526749
0.00015452429
0.00015380171
0.00015314559
0.00015257433
0.00015208475
0.00015164337
0.0001512865
0.00015099944
0.0001507772
0.00015060108
0.0001504842
0.0001503389
0.00041286622
0.00036670621
0.00038317817
0.00045362647
0.00054008807
0.0006081688
0.00063266136
0.0006153833
0.00056824849
0.0005156709
0.00047230601
0.0004305401
0.00039185301
0.0003757822
0.00040136538
0.00045554105
0.00050205976
0.00051204667
0.00047617907
0.00042171282
0.00046843609
0.00049790443
0.00051706779
0.00049913966
0.00044046961
0.0003623959
0.00031124695
0.0003077661
0.00033340822
0.00034358763
0.00035739849
0.00034997538
0.00029967302
0.00024954293
0.00022124435
0.00018752598
0.00017426883
0.00016672717
0.000162995
0.00016105569
0.00015983635
0.00015891744
0.00015811173
0.00015733011
0.00015661254
0.00015591368
0.00015518757
0.00015444232
0.00015372652
0.00015308159
0.00015251947
0.00015200324
0.0001515823
0.00015124239
0.00015096781
0.00015075495
0.00015058508
0.0001504727
0.00015032896
0.00044596281
0.00038716966
0.00035176672
0.00037904581
0.00045626995
0.00054520994
0.00060942431
0.00063054048
0.00061654478
0.00057467072
0.00052208792
0.00047121921
0.00042637974
0.00038661745
0.00037079828
0.00039517943
0.00044367564
0.00047868055
0.00047827035
0.00044409746
0.00039412226
0.00047969067
0.00050056852
0.0004893225
0.0004375059
0.00036234642
0.00030610647
0.00029656479
0.00031062592
0.00031911111
0.00032665648
0.00034775474
0.00033815985
0.00028087074
0.00023704803
0.00020961902
0.00018186529
0.00017187342
0.00016559579
0.00016248346
0.00016077418
0.0001596569
0.00015879839
0.00015803908
0.00015728254
0.0001565558
0.00015584345
0.00015510747
0.00015436135
0.00015365317
0.00015301642
0.00015241603
0.00015192464
0.00015152462
0.00015120044
0.00015093774
0.00015073363
0.00015056966
0.00015046149
0.0001503192
0.00045744976
0.00041951836
0.00036396802
0.0003395812
0.00037514317
0.00045637502
0.00054562496
0.00060469638
0.00062165417
0.00061143556
0.0005763453
0.00052150062
0.00046736899
0.00042070292
0.00038021792
0.00036548707
0.000389741
0.0004326318
0.00045571308
0.00044502268
0.00041240985
0.00036901951
0.000479289
0.00047345839
0.00042901013
0.00035946168
0.00030097509
0.00028477232
0.00029602938
0.00029531904
0.00029258842
0.00031486774
0.00034276248
0.00032084175
0.00026042113
0.00022656037
0.00019531992
0.00017864031
0.00016993858
0.00016472255
0.00016204053
0.00016049993
0.00015946281
0.0001586552
0.00015793946
0.00015721896
0.00015649116
0.00015576967
0.00015502619
0.00015428151
0.00015357839
0.00015288789
0.00015231661
0.0001518507
0.00015147002
0.00015116078
0.00015090917
0.00015071327
0.00015055483
0.00015045056
0.00015030964
0.00045470019
0.00043224004
0.00039237691
0.0003443493
0.00033012615
0.00037121094
0.00045387634
0.00054147022
0.00059474116
0.00060689656
0.00059880434
0.00056727572
0.00051338189
0.00046079644
0.00041254495
0.00037226089
0.00036046
0.00038597084
0.00042237078
0.00043268572
0.00041286228
0.00038118146
0.00034605208
0.00045296318
0.00041600952
0.00035403251
0.00029598747
0.00027443401
0.00028183571
0.00027878418
0.00026753107
0.00027805049
0.00031543151
0.00033898974
0.0002966499
0.00024319848
0.00021655162
0.00018688714
0.00017635479
0.00016842066
0.00016398806
0.00016162705
0.00016022134
0.00015925243
0.00015849009
0.00015781507
0.000157137
0.00015641765
0.00015569098
0.00015494418
0.00015419967
0.00015342332
0.00015276431
0.00015222331
0.00015178099
0.00015141866
0.00015112332
0.00015088212
0.00015069386
0.00015054059
0.00015043991
0.00015030022
0.00042954011
0.00042872589
0.000405626
0.00036718564
0.00032875613
0.00032319379
0.00036714978
0.00044900268
0.00053333683
0.00058080548
0.00058771363
0.00057670641
0.00054791085
0.00050154054
0.00045032236
0.00040131288
0.00036301428
0.00035718504
0.00038448546
0.00041147525
0.0004069676
0.00037984832
0.00034992141
0.00032184254
0.00039972198
0.00034663108
0.0002911877
0.00026605883
0.0002706544
0.00026776796
0.00025151746
0.00025087564
0.00027932753
0.00032381195
0.00032831831
0.00026965965
0.00023135561
0.00020291637
0.0001829629
0.00017420823
0.00016715713
0.00016332921
0.00016122854
0.00015993888
0.00015903133
0.00015831003
0.00015767181
0.00015703428
0.00015633345
0.00015560809
0.00015485906
0.00015402048
0.00015327332
0.00015264839
0.00015213567
0.00015171568
0.00015137038
0.00015108805
0.00015085655
0.00015067538
0.00015052691
0.00015042944
0.00015029088
0.00038153716
0.00040530998
0.00040275368
0.00037978806
0.0003454799
0.00031713099
0.00031841553
0.00036309187
0.00044225851
0.00052198007
0.00056464265
0.00056558564
0.00055100373
0.00052651842
0.00048471091
0.0004350566
0.00038730675
0.00035421449
0.00035773094
0.00038478818
0.00039568926
0.00037574986
0.00034381447
0.00031828691
0.00029307813
0.00033680877
0.00028669745
0.00026001428
0.00026260322
0.0002614006
0.00024423256
0.00023353665
0.00024891787
0.00029185944
0.00033259071
0.00030440451
0.00024793445
0.00022203803
0.00019176096
0.00018066092
0.00017218582
0.00016605797
0.00016272323
0.00016084419
0.0001596583
0.00015880706
0.00015812297
0.00015751705
0.00015691447
0.00015623992
0.00015552023
0.00015466262
0.00015384504
0.00015313202
0.00015253971
0.00015205387
0.00015165454
0.00015132514
0.0001510549
0.00015083244
0.00015065777
0.00015051359
0.00015041918
0.00015028162
0.00032565156
0.00036296583
0.00038138977
0.0003779995
0.00035646444
0.00032793047
0.00030897624
0.00031534743
0.00035936358
0.00043399722
0.00050824675
0.00054686925
0.00054475708
0.00052518486
0.00050060941
0.00046228557
0.00041539628
0.00037267249
0.0003503294
0.00036338593
0.00038141156
0.00037063982
0.00033718623
0.00030538758
0.0002854604
0.00025906969
0.00028258212
0.00025672247
0.00025795895
0.00025907455