/*--------------------------------*- C++ -*----------------------------------*\
  =========                 |
  \\      /  F ield         | OpenFOAM: The Open Source CFD Toolbox
   \\    /   O peration     | Website:  https://openfoam.org
    \\  /    A nd           | Version:  8
     \\/     M anipulation  |
\*---------------------------------------------------------------------------*/
FoamFile
{
    version     2.0;
    format      ascii;
    class       volScalarField;
    location    "399.966377299886858";
    object      k_0;
}
// * * * * * * * * * * * * * * * * * * * * * * * * * * * * * * * * * * * * * //

dimensions      [0 2 -2 0 0 0 0];

internalField   nonuniform List<scalar> 
9200
(
0.000150063
0.00015026006
0.00015007398
0.00015050094
0.00015025987
0.00015003438
0.00015083488
0.00015049142
0.00015021665
0.00015000332
0.00015126464
0.00015082091
0.00015044758
0.00015018186
0.00014996235
0.00015182331
0.00015124946
0.0001507785
0.0001504108
0.00015013544
0.00014992095
0.00015255571
0.0001518115
0.00015121549
0.00015074137
0.00015036019
0.00015008791
0.0001498806
0.00015353353
0.00015255223
0.00015179501
0.00015118466
0.00015068617
0.00015030686
0.00015004155
0.00014984775
0.00015491422
0.00015354927
0.00015256557
0.00015178046
0.00015112848
0.00015062459
0.00015025442
0.00015000399
0.00014982639
0.00015698839
0.00015494892
0.00015360557
0.00015257931
0.00015173005
0.00015105769
0.00015056202
0.00015021207
0.00014997998
0.00014982026
0.00016007146
0.00015700657
0.00015505539
0.00015365907
0.00015254126
0.00015164995
0.00015097992
0.00015051018
0.00015018556
0.00014997198
0.00014983077
0.00016454333
0.00016003871
0.00015715629
0.00015515132
0.0001536348
0.00015244998
0.00015155016
0.0001509114
0.00015047648
0.00015017772
0.00014998135
0.00014985336
0.00017149285
0.00016437742
0.00016018654
0.00015726602
0.00015513317
0.00015352382
0.00015231862
0.00015145446
0.00015086254
0.00015046559
0.00015019079
0.00015000396
0.00014988248
0.00018364067
0.00017085695
0.000164458
0.00016026872
0.00015722576
0.00015498576
0.00015334798
0.00015218284
0.0001513788
0.00015084333
0.00015048005
0.00015021771
0.00015003305
0.00014991314
0.00020558922
0.00018233158
0.00017074182
0.00016447398
0.00016015723
0.00015701135
0.00015474732
0.00015315741
0.00015206773
0.0001513419
0.00015085711
0.00015051017
0.0001502497
0.0001500628
0.0001499417
0.00023766206
0.00020538461
0.00018198418
0.000170633
0.0001642161
0.00015981537
0.00015667556
0.00015448141
0.00015299137
0.00015200261
0.00015134927
0.00015089032
0.00015054405
0.00015027974
0.00015008934
0.00014996608
0.00027688773
0.00024052521
0.00020534543
0.00018175849
0.00017006616
0.00016363294
0.00015931789
0.00015629847
0.00015424597
0.00015288725
0.00015199704
0.00015138268
0.00015092643
0.00015057279
0.00015030381
0.00015011093
0.00014998573
0.00031520371
0.00028236417
0.00024341347
0.00020527288
0.00018040055
0.00016894714
0.00016285123
0.00015877477
0.00015595983
0.00015408682
0.00015286023
0.00015202657
0.00015141949
0.00015095358
0.00015059211
0.00015032082
0.00015012761
0.00015000124
0.00034478943
0.00032098755
0.00028726382
0.00024524542
0.00020231661
0.00017769276
0.00016756305
0.00016203832
0.00015828635
0.00015571941
0.00015402047
0.00015287536
0.0001520595
0.00015144335
0.00015096686
0.00015060189
0.00015033194
0.00015014068
0.0001500141
0.00036370527
0.00034784332
0.00032508464
0.00028981155
0.00024077886
0.00019580813
0.0001745373
0.00016623465
0.00016132629
0.00015791094
0.00015557092
0.00015399783
0.00015288887
0.00015207335
0.00015144847
0.00015096751
0.00015060501
0.00015033972
0.00015015204
0.00015002602
0.00037465401
0.00036152539
0.00034867475
0.0003260366
0.0002844216
0.00022834283
0.00018786608
0.00017183828
0.00016515107
0.0001607699
0.00015764782
0.00015546941
0.00015396508
0.00015287758
0.00015206478
0.00015143812
0.00015096069
0.00015060585
0.00015034715
0.00015016366
0.00015003851
0.0003829738
0.00036566027
0.00035854387
0.00034761792
0.00031976527
0.0002697055
0.00021207561
0.00018096217
0.00016994065
0.00016433888
0.00016034925
0.00015744588
0.00015537269
0.00015390958
0.00015284344
0.00015204157
0.00015142082
0.00015095308
0.0001506089
0.00015035695
0.00015017724
0.00015005284
0.00039233337
0.0003685729
0.00035937303
0.00035894223
0.00034218689
0.00030556991
0.00024828796
0.00019747583
0.00017657592
0.00016867306
0.00016372025
0.00016001128
0.00015725635
0.00015525773
0.00015383552
0.00015279856
0.00015201535
0.00015140584
0.00015095097
0.00015061771
0.00015037117
0.00015019399
0.00015006992
0.00040384127
0.00037373147
0.00036235931
0.00036512993
0.00035816412
0.00033187027
0.00028442013
0.00022395024
0.00018751096
0.00017408458
0.00016780438
0.00016323297
0.00015970762
0.00015705659
0.0001551297
0.00015375854
0.00015275702
0.00015199634
0.00015140052
0.00015095882
0.00015063441
0.0001503909
0.00015021463
0.00015009032
0.00041700479
0.00038141518
0.00036884096
0.00037359095
0.00037521826
0.00035372351
0.00031555293
0.00025822491
0.000204685
0.0001817542
0.00017266134
0.00016716365
0.00016281615
0.00015940695
0.00015685073
0.0001550073
0.00015369397
0.00015272887
0.00015199054
0.00015140928
0.00015097855
0.0001506596
0.00015041639
0.00015023938
0.00015011421
0.00043073744
0.00039070147
0.00037797614
0.00038837832
0.00039573351
0.00037841641
0.00034366606
0.00029310215
0.00023103089
0.00019326744
0.00017876464
0.00017175045
0.00016664037
0.00016241342
0.0001591052
0.00015665915
0.0001549081
0.00015365128
0.00015271877
0.00015200007
0.00015143339
0.00015100981
0.00015069256
0.00015044712
0.00015026805
0.00015014146
0.00044424266
0.00040035859
0.00038697797
0.00040462994
0.00041984107
0.00040833551
0.00037385203
0.00032920743
0.00026704885
0.0002132417
0.00018804696
0.00017726723
0.00017103909
0.00016612669
0.0001620023
0.00015882089
0.00015650234
0.00015484195
0.0001536335
0.00015272759
0.00015202615
0.00015147126
0.00015105056
0.00015073162
0.00015048208
0.00015030009
0.00015017162
0.00045703112
0.00040972634
0.00039441982
0.00041833546
0.00044453293
0.00044247852
0.00040875558
0.00036746143
0.00031209965
0.00024680416
0.00020672747
0.00018676462
0.00017653871
0.00017030327
0.00016556641
0.00016159584
0.00015857832
0.00015639211
0.00015481008
0.00015363908
0.00015275359
0.00015206673
0.00015151932
0.00015109776
0.00015077459
0.00015052
0.00015033473
0.00015020399
0.00046882385
0.00041858769
0.0004000643
0.00042797544
0.0004654234
0.00047750664
0.00044819716
0.00040607343
0.00036047165
0.00029842187
0.00024358908
0.00020874841
0.00018779427
0.00017602351
0.00016944214
0.0001649678
0.00016122522
0.00015839447
0.0001563289
0.00015480711
0.00015366393
0.00015279262
0.00015211625
0.00015157287
0.00015114794
0.00015081923
0.00015055938
0.00015037095
0.00015023766
0.00047947706
0.00042697642
0.00040442023
0.0004337375
0.00048007314
0.00050817138
0.00048938933
0.00044444756
0.00040320876
0.00035534634
0.00030217793
0.00025531113
0.00021618894
0.00018944504
0.00017517128
0.00016847057
0.00016437876
0.00016091863
0.00015827172
0.00015630306
0.00015482491
0.00015370152
0.0001528386
0.00015216777
0.0001516267
0.00015119771
0.0001508635
0.00015059856
0.00015040756
0.00015027164
0.00048978567
0.00043489024
0.00040807885
0.00043680365
0.00048873697
0.00053154798
0.00052834329
0.00048203272
0.00043922501
0.00039641989
0.00035627149
0.00032022828
0.00027484152
0.00022437819
0.00018948529
0.00017371278
0.00016746464
0.00016384937
0.00016068561
0.00015819758
0.00015630122
0.00015485385
0.00015374409
0.00015288595
0.00015221502
0.00015167675
0.00015124431
0.00015090532
0.00015063617
0.00015044352
0.00015030494
0.00049864289
0.0004430591
0.00041157417
0.00043828227
0.00049273568
0.00054753957
0.00056235671
0.00051814091
0.0004694076
0.00042403135
0.00038648341
0.00036165962
0.00033647781
0.00029063824
0.00022683114
0.00018677581
0.00017183976
0.00016653187
0.00016340306
0.00016051361
0.00015815257
0.00015630936
0.0001548855
0.00015378561
0.00015293024
0.00015225671
0.00015172002
0.00015128554
0.00015094292
0.00015067139
0.00015047785
0.0001503366
0.00050536427
0.00045126313
0.00041561325
0.000439112
0.00049361893
0.00055702793
0.00059027664
0.00055201591
0.00049553067
0.00044200147
0.00039860318
0.00037593645
0.00036458162
0.00034319216
0.00029282437
0.00022089064
0.00018202676
0.00016998693
0.00016574153
0.00016303284
0.00016037635
0.000158117
0.00015631771
0.00015491343
0.00015382144
0.00015296769
0.0001522918
0.00015175468
0.00015131993
0.00015097553
0.00015070321
0.00015050967
0.00015036582
0.00050960679
0.00045907113
0.00041991278
0.00044029864
0.00049266219
0.00056166733
0.00061184976
0.00058284694
0.00051889138
0.00045514271
0.00040089968
0.00037203247
0.00036517545
0.00036024734
0.0003390202
0.00028197378
0.00020869614
0.00017700002
0.00016846302
0.00016510181
0.00016271153
0.00016024821
0.00015807838
0.00015631851
0.00015493231
0.00015384787
0.00015299601
0.00015231931
0.00015178042
0.00015134709
0.00015100284
0.00015073102
0.00015053833
0.00015039198
0.00051122167
0.00046626264
0.00042533896
0.00044096397
0.00049048818
0.00056277334
0.00062783641
0.00060998312
0.00054009208
0.0004661201
0.00040120469
0.00036194474
0.00035125885
0.00035269037
0.00035079618
0.00032658362
0.00026094155
0.00019489204
0.00017306026
0.00016732566
0.00016457631
0.00016241314
0.00016011315
0.00015802677
0.00015630528
0.00015493782
0.00015386225
0.00015301402
0.0001523385
0.00015179922
0.00015136709
0.00015102466
0.00015075457
0.00015056337
0.00015041463
0.00051022157
0.00047259447
0.00043211527
0.00044359043
0.00048636529
0.00055912226
0.00064002125
0.00063302987
0.00055928236
0.00047598815
0.00040193949
0.00035501902
0.0003349762
0.00033716131
0.00034131974
0.00034047483
0.00030728823
0.00023294569
0.00018370641
0.00017048051
0.00016646934
0.0001641201
0.00016211897
0.00015995885
0.00015795419
0.00015627305
0.00015492706
0.00015386319
0.00015302119
0.00015234897
0.00015181139
0.00015138024
0.00015104122
0.00015077369
0.00015058451
0.00015043353
0.00050683014
0.00047789396
0.00044044472
0.00044843208
0.00048359619
0.00055063241
0.00064423561
0.00065365896
0.00057650621
0.00048506809
0.00040372803
0.00035130182
0.0003277171
0.00032356213
0.00032876438
0.00033498584
0.0003291059
0.00028097862
0.000207738
0.0001766001
0.00016884772
0.00016577471
0.00016369979
0.0001618142
0.00015977658
0.00015785531
0.00015621895
0.00015489881
0.00015385041
0.00015301764
0.00015235123
0.00015181727
0.00015138833
0.00015105277
0.00015078845
0.00015060167
0.00015044864
0.00050149361
0.00048210552
0.00045042558
0.00045595382
0.00048264141
0.00054157266
0.0006399252
0.00067323371
0.00059183832
0.00049315164
0.00040646581
0.00035082545
0.00032589203
0.00031863506
0.00032211427
0.00032724681
0.00033243991
0.00031229667
0.00024842143
0.00019016894
0.00017264754
0.00016771663
0.00016517246
0.00016329332
0.00016148929
0.00015956203
0.00015772776
0.00015614222
0.00015485329
0.0001538245
0.00015300412
0.00015234593
0.00015181723
0.0001513918
0.00015105963
0.00015079902
0.00015061492
0.00015046005
0.00049483921
0.00048535128
0.00046210874
0.00046639228
0.00048393188
0.00053261461
0.00063168638
0.00068458124
0.00061162706
0.00050119188
0.00040912567
0.00035218312
0.00032856405
0.00032149322
0.00032280496
0.00032587115
0.00033077874
0.00032787729
0.00028652526
0.00021607135
0.00018005821
0.0001703901
0.00016684395
0.00016462461
0.00016288813
0.00016114006
0.0001593151
0.00015757194
0.00015604399
0.00015479189
0.00015378679
0.00015298188
0.00015233383
0.00015181185
0.000151391
0.00015106219
0.00015080565
0.00015062444
0.00015046799
0.00048767902
0.00048794909
0.00047553936
0.00047984696
0.00048766377
0.00052413833
0.0006201926
0.0006888991
0.00062967815
0.00051331507
0.00041302905
0.00035398358
0.00033276589
0.00032832543
0.00032932425
0.00033117642
0.00033330298
0.00033505296
0.00031350534
0.00025210067
0.00019446961
0.00017478069
0.00016896229
0.00016610894
0.00016410919
0.00016247635
0.00016076619
0.00015903908
0.0001573907
0.00015592692
0.00015471689
0.00015373912
0.0001529522
0.00015231581
0.00015180169
0.00015138638
0.00015106137
0.00015080869
0.0001506305
0.00015047274
0.00049039993
0.00048092223
0.00049079823
0.00049624017
0.00049379987
0.00051660815
0.00060577025
0.00068689214
0.00064382564
0.00052629173
0.00041940364
0.00035739353
0.00033752409
0.00033619504
0.00033880837
0.00034093412
0.00034123515
0.00034120491
0.0003322694
0.00028624747
0.0002178962
0.00018263302
0.00017198546
0.00016792956
0.00016545685
0.0001636144
0.00016204893
0.00016037009
0.00015873976
0.00015718876
0.00015579478
0.00015463114
0.00015368363
0.00015291627
0.00015229273
0.00015178739
0.00015137828
0.00015105758
0.00015080847
0.00015063344
0.00015047465
0.00050804687
0.0004934921
0.00047576173
0.00051529864
0.00050203262
0.00051010507
0.00058929382
0.0006787757
0.0006523913
0.00053801101
0.00042769482
0.0003614027
0.00034254019
0.00034365183
0.00034868182
0.00035252785
0.00035270625
0.00034988911
0.00034628481
0.00031461536
0.00024826141
0.00019587922
0.00017675494
0.00017034085
0.00016709314
0.00016485916
0.00016313259
0.00016159367
0.00015995648
0.0001584244
0.00015697208
0.00015565191
0.00015453761
0.00015362209
0.00015287529
0.00015226544
0.00015176955
0.00015136715
0.00015105118
0.00015080534
0.0001506336
0.00015047409
0.00053654134
0.00052770573
0.00049832038
0.00047228947
0.00051182958
0.00050456919
0.00057105556
0.0006651426
0.00065469777
0.00054745562
0.00043561661
0.00036593885
0.00034759324
0.00035009371
0.00035785147
0.00036386649
0.00036572888
0.0003615552
0.00035837644
0.00033886457
0.00028128639
0.00021530319
0.00018442309
0.00017379762
0.00016921542
0.00016636725
0.00016429829
0.00016265586
0.00016111035
0.00015953195
0.00015810091
0.00015674712
0.00015550277
0.0001544392
0.00015355614
0.00015283039
0.00015223474
0.00015174874
0.00015135342
0.00015104249
0.00015080002
0.00015063134
0.00015047143
0.00052261219
0.00055916799
0.00055050985
0.00050384485
0.00047078524
0.00049921179
0.00055318509
0.00064573765
0.00065071611
0.00055374732
0.00044307112
0.00037068675
0.00035042728
0.0003570342
0.00036624305
0.00037419272
0.00037853255
0.00037533806
0.0003704548
0.00035993827
0.00031269832
0.00024046421
0.00019610329
0.0001790227
0.00017214456
0.00016833394
0.00016571105
0.00016376096
0.00016217365
0.00016060576
0.00015910434
0.00015777704
0.00015652027
0.00015535156
0.0001543382
0.00015348725
0.00015278257
0.00015220134
0.0001517255
0.00015133752
0.00015103187
0.00015079293
0.00015062702
0.00015046701
0.00049482657
0.00053352893
0.00058174161
0.00057126152
0.00051035657
0.00047133833
0.00052972238
0.00062397852
0.00064037582
0.00055623502
0.00044987051
0.00037607583
0.00035522229
0.00036109691
0.00037400152
0.00038346467
0.00039053094
0.00038957489
0.0003834414
0.00037849134
0.0003420548
0.00027025673
0.00021253295
0.00018698199
0.00017646368
0.00017106308
0.00016757765
0.00016509785
0.00016323455
0.000161672
0.00016008972
0.00015868201
0.00015745989
0.00015629718
0.00015520175
0.00015423661
0.0001534167
0.00015273273
0.00015216588
0.00015170032
0.00015131984
0.00015101963
0.00015078437
0.00015062104
0.00015046114
0.00050743393
0.00049144163
0.00054368238
0.00060253469
0.000590985
0.00051784502
0.00047394447
0.00059490156
0.00062421748
0.00055478108
0.00045561745
0.00038247391
0.00036124109
0.00036758273
0.00037904483
0.00039041563
0.00040196916
0.00040369044
0.00039703167
0.00039520665
0.00036994527
0.00030320727
0.00023393381
0.00019868519
0.000183156
0.00017515238
0.00017023963
0.00016688979
0.00016450776
0.00016270582
0.00016113584
0.0001595738
0.0001582726
0.00015715531
0.00015608271
0.00015505612
0.00015413602
0.00015334555
0.00015268159
0.00015212892
0.00015167364
0.00015130074
0.00015100608
0.00015077463
0.00015061395
0.00015045427
0.00056364665
0.00048794878
0.00048826855
0.00055197531
0.00062018065
0.00060835945
0.00052628899
0.00047838836
0.00060337182
0.00054951094
0.00046006766
0.00039000297
0.00036959592
0.000376018
0.00038609112
0.00039421471
0.00040847355
0.00041983603
0.00041111985
0.00041000416
0.00039594255
0.00033782978
0.0002604112
0.00021489293
0.00019345441
0.00018175599
0.00017438514
0.00016953435
0.00016623641
0.00016392525
0.00016216183
0.00016055445
0.00015906928
0.00015788314
0.00015686868
0.0001558808
0.00015491677
0.00015403764
0.00015327459
0.00015262975
0.00015209094
0.00015164584
0.00015128054
0.00015099152
0.00015076397
0.00015060603
0.00015044679
0.00057913077
0.00053327193
0.00047084842
0.00048457844
0.00055755416
0.00063351721
0.00062343148
0.00053547792
0.00048421426
0.00054096986
0.00046320325
0.00039876146
0.00038080378
0.00038772606
0.00039507531
0.0003990947
0.00041044961
0.00042887184
0.0004302105
0.00042404395
0.00041911021
0.00037242401
0.00029228907
0.00023656021
0.00020848551
0.00019247146
0.00018143175
0.00017384881
0.00016887701
0.00016559612
0.00016333607
0.00016158861
0.00015995984
0.00015858835
0.00015752041
0.00015660478
0.0001556945
0.00015478502
0.00015394223
0.00015320438
0.00015257772
0.00015205233
0.00015161727
0.00015125956
0.0001509762
0.00015075262
0.00015059749
0.00015043888
0.00053001804
0.00055337129
0.00050539652
0.0004555819
0.00047996753
0.00055992452
0.00064226319
0.00063611834
0.00054488905
0.0004907836
0.00046523358
0.00040893247
0.00039518834
0.00040344557
0.00040696445
0.00040545077
0.00041205816
0.00043163572
0.00044374367
0.00044001426
0.0004398076
0.00040528723
0.00032948577
0.00026492799
0.00023027073
0.00020907055
0.000193448
0.00018155375
0.00017339066
0.00016823197
0.00016494463
0.00016272278
0.00016098392
0.00015938425
0.00015814318
0.00015719075
0.00015636795
0.00015552574
0.00015466143
0.00015385017
0.00015313534
0.00015252586
0.00015201344
0.00015158822
0.00015123804
0.00015096035
0.00015074078
0.00015058853
0.00015043072
0.00046660091
0.00051788631
0.00052773583
0.00048057216
0.00044198076
0.0004742647
0.0005588509
0.00064611841
0.00064543476
0.0005538591
0.00049732266
0.00042077368
0.00041307906
0.00042362995
0.00042244476
0.00041363499
0.00041368986
0.0004318705
0.00045183064
0.00045296303
0.00045829631
0.0004358102
0.00037053556
0.00030020815
0.00026066186
0.00023515931
0.00021333492
0.00019524071
0.00018179071
0.00017293528
0.00016753854
0.00016425283
0.00016208344
0.00016036293
0.00015885278
0.00015774636
0.00015690115
0.00015616285
0.00015537448
0.00015454584
0.00015376162
0.00015306777
0.00015247446
0.00015197452
0.00015155893
0.0001512162
0.00015094417
0.00015072864
0.00015057931
0.00015042242
0.00043452511
0.00046808684
0.0005052951
0.0005037765
0.00045912802
0.00042996221
0.00046744494
0.00055423929
0.00064456441
0.00065054314
0.00056139722
0.00050243808
0.00043473331
0.00044837574
0.00044196825
0.00042433334
0.00041524722
0.00043032644
0.00045557889
0.00046397127
0.00047182869
0.00046243664
0.00041083984
0.00034056962
0.00029749686
0.00027210303
0.00024673193
0.00021959065
0.00019717615
0.00018195297
0.00017229938
0.00016673011
0.00016351993
0.0001614341
0.00015975919
0.00015838842
0.0001574111
0.00015666172
0.00015599136
0.00015523924
0.00015443769
0.0001536766
0.00015300182
0.00015242373
0.0001519358
0.00015152962
0.00015119423
0.00015092784
0.00015071637
0.00015056997
0.00015041401
0.00046005438
0.00045060729
0.00047016086
0.00049320053
0.00048268673
0.00044120869
0.00041948708
0.00045971847
0.00054635005
0.00063747382
0.00065043436
0.00056571611
0.00050602435
0.00047724198
0.00046530581
0.00043769428
0.00041769222
0.00042595855
0.00045638661
0.00047214673
0.00048235381
0.00048448713
0.00044339461
0.00038131116
0.00033487834
0.00031002147
0.00029030058
0.00026152637
0.00022666327
0.0001988226
0.00018150452
0.0001713079
0.00016580664
0.00016277185
0.00016080746
0.00015922487
0.00015801002
0.00015714944
0.00015647887
0.00015585239
0.00015511735
0.00015433619
0.00015359491
0.00015293754
0.00015237381
0.00015189745
0.00015150045
0.00015117233
0.00015091155
0.00015070411
0.00015056037
0.0001504037
0.00050893026
0.00048880788
0.00046850879
0.0004729306
0.00048250663
0.00046517674
0.00042678145
0.00041054771
0.00045140069
0.00053573046
0.00062523367
0.00064419945
0.00056694421
0.00050741156
0.00049148725
0.00045346689
0.00042149076
0.00042016447
0.00045156698
0.00047805226
0.00049039169
0.00050082658
0.00047381583
0.00041277567
0.00036292812
0.0003348692
0.00031643591
0.00030238231
0.00027443926
0.00023299106
0.00019869695
0.00018001609
0.00016997601
0.00016482498
0.00016205248
0.00016024512
0.0001587984
0.00015772829
0.00015696718
0.00015635451
0.00015573544
0.00015500636
0.00015424035
0.00015351627
0.00015287491
0.00015232481
0.00015185961
0.0001514716
0.00015115067
0.00015089541
0.00015069153
0.00015054793
0.00015039308
0.00051888278
0.00054101561
0.00051875914
0.00048663954
0.00047659451
0.00047393907
0.00045152411
0.00041568712
0.00040307422
0.00044272651
0.00052320795
0.00060914512
0.00063362687
0.00056485257
0.00050557553
0.00047099781
0.00042688639
0.00041384557
0.00044219765
0.00047914711
0.00049564097
0.00051287786
0.00049743912
0.00044455488
0.00038014952
0.00034337429
0.00032234953
0.00030750541
0.00029836261
0.00027610362
0.00023467018
0.00019573496
0.00017770653
0.00016846006
0.0001638683
0.00016140953
0.00015978387
0.00015849001
0.0001575418
0.00015685512
0.00015626669
0.0001556312
0.00015490373
0.00015414923
0.00015344038
0.00015281396
0.00015227683
0.00015182245
0.00015144327
0.00015112936
0.00015087881
0.00015067348
0.00015053531
0.0001503824
0.00048932241
0.00054551406
0.00057032022
0.00054601498
0.00050401047
0.00048134585
0.00046796049
0.00044165794
0.00040762979
0.00039679285
0.00043383438
0.0005102366
0.00059345367
0.00061878466
0.00055839941
0.00049930207
0.00043379986
0.00040764773
0.00042956215
0.00047442514
0.00049773746
0.00051950779
0.00051529231
0.00047073503
0.00040216694
0.00034608009
0.00032089945
0.00030767218
0.00029713439
0.00028674269
0.00026713625
0.00023009099
0.00019079115
0.00017505028
0.00016695321
0.00016301278
0.00016087915
0.00015944172
0.00015829244
0.00015743468
0.0001567844
0.00015618939
0.00015553632
0.00015480726
0.00015406203
0.00015336705
0.00015275468
0.00015222999
0.00015178615
0.00015141553
0.00015110747
0.00015085342
0.00015065534
0.00015052278
0.00015037173
0.00044184824
0.00050738913
0.00056974311
0.00059437723
0.00056774684
0.00052044107
0.00048733989
0.00046468705
0.00043525536
0.00040189053
0.00039122784
0.00042599978
0.00049892776
0.00057514772
0.00059917177
0.00054654426
0.0004875377
0.00040201998
0.00041454729
0.00046507034
0.0004956377
0.0005206344
0.00052652923
0.00049024801
0.00042298248
0.00035429129
0.00032005123
0.0003141639
0.00031143135
0.00030031112
0.00027770828
0.00025551053
0.00022064142
0.00018530088
0.00017242134
0.00016560752
0.00016230545
0.00016047424
0.00015921115
0.00015818288
0.00015737913
0.0001567336
0.00015611749
0.00015544757
0.00015471539
0.00015397822
0.00015329613
0.00015269708
0.0001521844
0.00015175072
0.00015138706
0.000151072
0.00015082822
0.00015063762
0.00015051037
0.00015036113
0.00039717089
0.00045018055
0.00052441162
0.00058958534
0.00061189485
0.00058513943
0.00053588394
0.00049432229
0.00046380104
0.00043137864
0.00039848338
0.00038573019
0.00041912561
0.00048711835
0.00055420672
0.00057475193
0.00052861924
0.0004696108
0.00039813373
0.00045008972
0.00048990942
0.00051647053
0.00053037355
0.0005026903
0.00043858862
0.0003638354
0.00032078953
0.00031907267
0.00033234644
0.00033569734
0.00030904133
0.00027049313
0.00024340527
0.00020864871
0.00018050304
0.00017010909
0.00016449875
0.00016175589
0.00016018148
0.00015906387
0.00015812852
0.00015734681
0.00015668818
0.00015604884
0.00015536249
0.00015462706
0.00015389737
0.00015322744
0.00015264116
0.00015214003
0.00015171443
0.00015133908
0.00015103712
0.00015080394
0.00015062034
0.00015049816
0.00015035064
0.00038133097
0.00039317356
0.00045804122
0.00053877677
0.00060390978
0.00062430347
0.00059946671
0.00054944269
0.00050152276
0.00046481317
0.00043000823
0.00039324605
0.00038075544
0.00041260551
0.00047456169
0.00053124979
0.0005458893
0.00050443221
0.00044627847
0.00042928652
0.00047983164
0.00050724423
0.00052691848
0.00050763593
0.00044831505
0.0003704584
0.00031951835
0.00031948226
0.00033957387
0.00035957353
0.00035376189
0.00030879909
0.0002604283
0.00023152677
0.00019628407
0.00017690414
0.0001682183
0.00016363349
0.00016134118
0.00015996834
0.00015896167
0.00015809488
0.00015731902
0.00015664198
0.0001559808
0.00015527956
0.00015454151
0.00015381903
0.00015316077
0.00015258683
0.0001520947
0.000151651
0.00015129228
0.0001510038
0.00015078049
0.00015060357
0.00015048616
0.0001503403
0.00040494626
0.00036546612
0.00039014016
0.00046417962
0.00054931087
0.00061199089
0.00063032292
0.00060847576
0.00055971736
0.00050852577
0.00046717249
0.00042584957
0.00038864803
0.00037613638
0.00040588986
0.00046169417
0.00050704468
0.0005135696
0.00047485263
0.00041950939
0.00046292459
0.00049377446
0.00051651155
0.00050493362
0.00045177872
0.00037422509
0.00031663595
0.00030730714
0.00033522418
0.00034996318
0.00036377517
0.00035148555
0.00029797743
0.00024796584
0.00022026761
0.00018720571
0.0001741698
0.00016672991
0.00016297307
0.00016102031
0.00015979417
0.00015886899
0.00015805558
0.0001572856
0.00015659164
0.00015591163
0.00015519782
0.00015445799
0.00015374272
0.00015309602
0.00015253144
0.00015201264
0.00015158951
0.00015124785
0.00015097189
0.00015075799
0.00015058733
0.00015047443
0.00015033013
0.00043995852
0.00038027349
0.00035205176
0.00038738957
0.00046787645
0.00055505488
0.00061342512
0.00062900483
0.00061089738
0.00056665939
0.00051473709
0.00046578993
0.00042159659
0.00038341165
0.00037119646
0.00039944616
0.00044906011
0.00048252056
0.00047928053
0.00044296128
0.00039243863
0.0004762373
0.00050003319
0.00049507499
0.00044875647
0.00037482064
0.00031286835
0.00029707078
0.00031279947
0.00032924139
0.00033692189
0.00035492326
0.00034031357
0.00028017206
0.00023567074
0.00020891351
0.00018160881
0.00017185755
0.00016558978
0.00016246015
0.00016074539
0.0001596251
0.00015876245
0.00015799574
0.00015724116
0.00015653517
0.0001558404
0.00015511632
0.00015437574
0.00015366839
0.0001530301
0.00015242729
0.0001519335
0.00015153142
0.00015120556
0.00015094153
0.00015073641
0.00015057166
0.00015046297
0.00015032015
0.00045442373
0.00041335397
0.00035831466
0.00034110188
0.00038447515
0.00046885639
0.00055582992
0.00060869554
0.00062079603
0.00060725035
0.00056928481
0.00051429927
0.00046187736
0.00041588475
0.00037714019
0.000366038
0.00039376814
0.00043715596
0.00045833044
0.0004454058
0.00041152184
0.0003680326
0.00047889952
0.00047896243
0.00043974895
0.00037189639
0.00030867515
0.00028611717
0.00029833485
0.00030421858
0.00030337841
0.00032314928
0.00034838515
0.00032290803
0.00025988108
0.00022525504
0.00019527186
0.00017841027
0.00016994108
0.00016471638
0.00016202492
0.00016048141
0.00015944259
0.00015863184
0.00015790919
0.00015718263
0.00015647166
0.00015576615
0.00015503404
0.00015429484
0.00015359264
0.00015290078
0.00015232719
0.00015185903
0.0001514764
0.00015116555
0.00015091266
0.00015071578
0.00015055657
0.00015045179
0.00015031036
0.00045446298
0.00042931683
0.00038657477
0.00033994679
0.00033255003
0.00038110474
0.00046691069
0.00055177842
0.00059858006
0.00060653785
0.00059613415
0.0005615111
0.00050684217
0.00045531256
0.00040781516
0.00036946125
0.00036129631
0.00038973645
0.00042590679
0.00043411436
0.00041276236
0.00038058933
0.00034575649
0.00045801632
0.00042585927
0.00036562377
0.00030413568
0.00027625181
0.00028341017
0.00028662194
0.00027672455
0.00028499907
0.00032089945
0.00034315533
0.00029845649
0.00024220428
0.00021573334
0.00018669246
0.00017621378
0.00016843898
0.0001639919
0.00016162171
0.00016021267
0.00015924205
0.00015847713
0.00015779624
0.00015710833
0.00015640001
0.00015568752
0.00015495132
0.00015421201
0.00015343696
0.00015277643
0.00015223323
0.0001517888
0.00015142462
0.00015112774
0.00015088529
0.00015069608
0.00015054208
0.00015044089
0.00015030072
0.00043395855
0.00042853636
0.00040262711
0.00036208292
0.00032551045
0.00032619708
0.00037719435
0.00046217623
0.00054349735
0.00058432958
0.0005873776
0.00057495082
0.00054333755
0.00049571058
0.00044502597
0.00039685419
0.00036073994
0.0003584519
0.00038781179
0.00041384753
0.00040742313
0.00037955157
0.00034976165
0.00032204808
0.00040844297
0.00035692087
0.00029923202
0.00026800842
0.00027119577
0.00027360287
0.0002589933
0.00025636313
0.000283024
0.00032733407
0.00033181835
0.00027067055
0.0002299071
0.00020329096
0.00018264367
0.00017420608
0.00016719446
0.00016334429
0.00016123184
0.0001599375
0.00015902783
0.00015830445
0.00015766172
0.00015701537
0.00015631833
0.0001556051
0.00015486564
0.00015403285
0.0001532863
0.00015265976
0.00015214495
0.00015172297
0.0001513759
0.0001510921
0.0001508594
0.00015067731
0.00015052815
0.00015043018
0.00015029118
0.00038890688
0.00040898297
0.00040243993
0.00037669342
0.00034123017
0.00031491271
0.00032172229
0.00037294203
0.00045517267
0.00053183754
0.00056783302
0.00056477062
0.00054918154
0.0005228668
0.000479702
0.00043018306
0.00038332922
0.00035281156
0.00035932534
0.00038732716
0.00039679779
0.00037560943
0.00034370794
0.00031865468
0.00029345887
0.00034581675
0.00029408274
0.00026175383
0.00026200769
0.00026514614
0.00024984001
0.00023781217
0.0002514468
0.0002935446
0.000335138
0.00030773861
0.00024753379
0.00022099026
0.00019167059
0.00018042283
0.00017225312
0.00016610999
0.00016274611
0.0001608529
0.00015966125
0.00015880766
0.00015812197
0.00015751289
0.00015690295
0.00015622783
0.00015551793
0.00015467035
0.00015385729
0.0001531443
0.00015255034
0.00015206252
0.0001516613
0.00015133022
0.00015105858
0.00015083497
0.00015065943
0.00015051457
0.00015041969
0.00015028172
0.00033314012
0.00036901522
0.00038430045
0.00037749886
0.00035340264
0.00032455197
0.00030762867
0.00031877907
0.00036875999
0.00044631128
0.0005176845
0.00054965176
0.00054325499
0.00052335587
0.00049781481
0.00045817118
0.00041121425
0.00036939782
0.00034981665
0.00036507988
0.00038270206
0.00037065657
0.00033685066
0.00030579473
0.00028618766
0.00025935968
0.00028871645