/*--------------------------------*- C++ -*----------------------------------*\
  =========                 |
  \\      /  F ield         | OpenFOAM: The Open Source CFD Toolbox
   \\    /   O peration     | Website:  https://openfoam.org
    \\  /    A nd           | Version:  8
     \\/     M anipulation  |
\*---------------------------------------------------------------------------*/
FoamFile
{
    version     2.0;
    format      ascii;
    class       volScalarField;
    location    "399.966377299886858";
    object      nut;
}
// * * * * * * * * * * * * * * * * * * * * * * * * * * * * * * * * * * * * * //

dimensions      [0 2 -1 0 0 0 0];

internalField   nonuniform List<scalar> 
9200
(
0.032432323
0.02830802
0.020864758
0.026631592
0.019924089
0.024602939
0.025235412
0.019764253
0.023161637
0.023986688
0.024748553
0.019359844
0.022845056
0.022590808
0.026025248
0.025020302
0.019337843
0.021927471
0.022221399
0.024418195
0.027430983
0.027205188
0.019555321
0.021013065
0.021144519
0.024089841
0.025780317
0.029613261
0.032192095
0.020159016
0.019850092
0.019795866
0.022891191
0.025607033
0.027918844
0.031870046
0.03138494
0.020572806
0.018334631
0.017991838
0.021251727
0.024545263
0.02804761
0.030180864
0.033327143
0.029996375
0.019414217
0.01630058
0.015806848
0.018892997
0.023045889
0.027375639
0.030671192
0.032504482
0.033324052
0.025778156
0.015669756
0.013751221
0.013298446
0.016126608
0.02067847
0.026577491
0.030571062
0.033274697
0.033303311
0.033322158
0.014871869
0.010194136
0.010540328
0.010839159
0.013217268
0.017742829
0.02504687
0.030978872
0.033218856
0.033271622
0.033301022
0.033321041
0.010613626
0.0067932061
0.0077238413
0.0086403568
0.010492912
0.014675226
0.022659264
0.031528803
0.03312613
0.03321551
0.033269572
0.033299466
0.033320256
0.010900043
0.0051169382
0.0056044761
0.006586586
0.0081853689
0.011681292
0.019276183
0.031819227
0.032976146
0.033121835
0.033213097
0.033268144
0.033298169
0.033319509
0.010365066
0.0053138707
0.0043686255
0.0049109644
0.0062143209
0.0088869327
0.015052561
0.029801298
0.032737566
0.032969838
0.033118424
0.033211239
0.033266801
0.033296834
0.033318684
0.0069914316
0.0090679837
0.004634801
0.0038778768
0.0046649769
0.0065845471
0.010929334
0.023269282
0.032355351
0.032729204
0.032964349
0.033115701
0.033209393
0.033265281
0.0332954
0.033317813
0.0046180622
0.0067892473
0.0084546752
0.0040735861
0.0036427766
0.0048647281
0.0077271417
0.015340612
0.031739839
0.032349683
0.032721509
0.032960134
0.033113209
0.033207374
0.033263624
0.033293986
0.033317024
0.0031042373
0.0043226081
0.006186619
0.0076358286
0.0036293311
0.0036839197
0.0054659864
0.0098026134
0.023352696
0.031753273
0.032343792
0.032716317
0.032957089
0.033110902
0.033205385
0.033262086
0.033292811
0.033316477
0.0022049074
0.0028052705
0.0038099194
0.0057881472
0.0064770312
0.0033097328
0.0039494908
0.0064204006
0.01215074
0.02596792
0.031760469
0.031782853
0.030186753
0.032596784
0.033109169
0.033203862
0.033261011
0.033292104
0.033316326
0.0016864096
0.0019436496
0.0024213991
0.003495656
0.0058729367
0.0050080559
0.0031550022
0.0043800215
0.0072239916
0.012518169
0.019249807
0.022751643
0.024304115
0.027114361
0.032596883
0.033108625
0.033203284
0.033260709
0.033292033
0.033316661
0.0013900883
0.0014657434
0.0016640205
0.0022025358
0.0035489021
0.0065848791
0.0036981421
0.0032071435
0.0046843334
0.0072513737
0.010962046
0.014538185
0.017673411
0.021026924
0.026098436
0.032957993
0.033109826
0.033204022
0.033261373
0.033292668
0.033317487
0.0012237983
0.0012014627
0.0012590614
0.0015180887
0.0022392963
0.0040726376
0.0070606317
0.0029399424
0.0032659983
0.0046372356
0.0067115556
0.0092008954
0.011983068
0.015429328
0.019805407
0.026463662
0.032963468
0.033113077
0.033206227
0.033263042
0.033293978
0.033318749
0.0011335857
0.0010609006
0.0010433414
0.0011671883
0.0015500599
0.0025969165
0.0051556838
0.0041451227
0.0026063556
0.0031726534
0.0043635011
0.0059836867
0.0079534033
0.010703484
0.014401589
0.019506421
0.027654247
0.032971859
0.033118332
0.033209798
0.033265601
0.033295843
0.033320351
0.0010886583
0.00098974311
0.00093937848
0.00099216261
0.0012028834
0.0017998506
0.0033759319
0.006676058
0.0028130191
0.0023874148
0.0029831761
0.0040061746
0.005348706
0.0072528732
0.010055835
0.013915256
0.019678048
0.029500914
0.032982551
0.033125178
0.033214415
0.033268816
0.033298092
0.033322173
0.0010705397
0.0009577906
0.0008950752
0.00091503118
0.0010398067
0.0013881844
0.0023514942
0.0045867352
0.0041867076
0.0022112951
0.0021872003
0.0027702127
0.0036642771
0.0049517839
0.0068938318
0.009712504
0.013749217
0.020218404
0.032150756
0.032994485
0.033132911
0.033219605
0.033272377
0.033300529
0.033324091
0.0010678469
0.00094762769
0.00088235433
0.00089330294
0.0009738212
0.0011879103
0.0017900638
0.0032540214
0.0058824442
0.0027070293
0.0018825037
0.0020106378
0.002567798
0.0034323295
0.0047484531
0.0067121221
0.0095576105
0.013816575
0.021180461
0.032800651
0.033006312
0.033140681
0.033224829
0.033275957
0.033302958
0.033325985
0.0010739197
0.00094913423
0.00088385855
0.00089637105
0.00095812669
0.001100395
0.0014902361
0.0024609825
0.0042532404
0.0044136934
0.0021648177
0.0016753847
0.001862493
0.0024239219
0.0033170689
0.0046619738
0.0066377654
0.0095213639
0.014090466
0.022325374
0.032815987
0.033016664
0.033147642
0.033229567
0.033279252
0.033305207
0.033327753
0.0010847947
0.00095679081
0.00089104387
0.00090789628
0.00096552887
0.001071127
0.0013328386
0.0019903312
0.0031732347
0.0046674761
0.0036719461
0.0020023109
0.0015457474
0.0017625297
0.0023600697
0.00328487
0.0046463599
0.006616675
0.0095661224
0.014471058
0.023067031
0.032826534
0.033024382
0.033153083
0.033233388
0.033282019
0.033307138
0.033329305
0.0010980514
0.00096775806
0.00090008592
0.00092043156
0.00097982088
0.0010695377
0.001253101
0.0016995875
0.0024606247
0.0033009283
0.0042164682
0.0040555653
0.0020451721
0.0014624418
0.0017217688
0.0023607509
0.0033026801
0.0046565344
0.0066181119
0.009692435
0.014743137
0.023067188
0.032831035
0.03302866
0.033156504
0.033236008
0.03328408
0.033308643
0.033330573
0.0011122361
0.00098052298
0.00090971157
0.00093134279
0.00099320712
0.0010776017
0.0012153756
0.0015169813
0.0019869736
0.0024072757
0.002783073
0.0034498493
0.0047862213
0.0021571976
0.0013971239
0.0017309821
0.0023936709
0.0033346882
0.0046701022
0.0066784541
0.0098516572
0.014819426
0.022425095
0.032829049
0.033029129
0.033157666
0.033237291
0.033285319
0.033309651
0.03333151
0.0011279356
0.00099413913
0.00091960073
0.00094046088
0.0010034077
0.0010867822
0.0011993854
0.0014026446
0.0016801296
0.0018320346
0.0019044571
0.0021600544
0.0027895852
0.0041700411
0.0021457824
0.0013461995
0.0017631804
0.0024330967
0.0033633354
0.004718422
0.0068014528
0.0099833767
0.014733412
0.021428846
0.030177975
0.033025814
0.033156604
0.033237214
0.033285723
0.033310143
0.033332094
0.0011429148
0.001009513
0.00092979152
0.0009482245
0.0010103251
0.0010940587
0.0011940519
0.0013320476
0.0014836782
0.0014808437
0.0013872658
0.0014112725
0.0016799658
0.0023640575
0.0039528921
0.0017900354
0.001339068
0.0018039204
0.0024702171
0.0034103931
0.004819029
0.0069356575
0.010062488
0.014503003
0.020310004
0.027540489
0.033019214
0.033153557
0.033235872
0.033285361
0.033310137
0.033332325
0.0011559275
0.0010259293
0.00094113019
0.00095528493
0.0010146676
0.0010984466
0.0011933941
0.0012893874
0.0013579537
0.0012678969
0.0010909822
0.0010026724
0.0010765278
0.0013933139
0.0022126301
0.0041682446
0.0013659384
0.0013666557
0.0018431823
0.0025160937
0.0034925919
0.0049367259
0.0070516125
0.010077062
0.014172738
0.019272787
0.025463234
0.032510001
0.033148911
0.033233499
0.033284323
0.033309674
0.033332223
0.0011661994
0.0010424449
0.00095361361
0.00096266187
0.0010172772
0.0011003323
0.0011940903
0.0012640856
0.0012771633
0.0011377155
0.00092162988
0.00078091481
0.00076363709
0.00089226622
0.0012972014
0.0023349262
0.0036468681
0.0011407786
0.00140283
0.0018853453
0.0025809156
0.0035870137
0.0050473091
0.0071457132
0.010053305
0.013839777
0.018426494
0.023800119
0.029791571
0.03314316
0.033230375
0.033282743
0.033308824
0.033331825
0.0011732223
0.0010585344
0.00096796715
0.00096989968
0.0010184267
0.0011001024
0.0011948062
0.0012492005
0.0012249469
0.0010571579
0.00082514602
0.00066212675
0.00060228757
0.00064166865
0.00083407482
0.0013738108
0.0027624388
0.0018674911
0.0011025296
0.0014404279
0.0019366228
0.0026528722
0.0036785708
0.0051543026
0.007236077
0.010040017
0.013581983
0.017755462
0.022517891
0.027882237
0.03313684
0.033226783
0.03328078
0.033307671
0.033331182
0.0011767287
0.0010736531
0.0009843161
0.00097969262
0.0010175328
0.0010953669
0.0011959333
0.0012403055
0.0011910772
0.0010067947
0.00076994667
0.0006020923
0.00052130997
0.00052002617
0.00060577282
0.00088535283
0.0016446422
0.0035635667
0.0011119182
0.0011261211
0.001480093
0.0019903427
0.0027223359
0.0037716322
0.0052705927
0.0073485246
0.010078662
0.013426931
0.017259914
0.021580769
0.02645586
0.032036333
0.033222989
0.033278583
0.033306303
0.033330352
0.0011767562
0.001087375
0.0010027702
0.00099225104
0.0010181586
0.0010858514
0.0011914019
0.0012363816
0.0011691683
0.00097525058
0.00073885495
0.00057309325
0.0004889978
0.0004655848
0.00049909511
0.0006415857
0.0010608533
0.0021765735
0.0023768681
0.00093166605
0.0011555212
0.0015187791
0.0020408003
0.0027932368
0.0038760245
0.0054122047
0.0075090331
0.01019594
0.013386784
0.016943089
0.02090408
0.025351089
0.030446632
0.033219232
0.033276293
0.03330481
0.033329395
0.0011736823
0.001099467
0.0010232948
0.0010080256
0.0010207427
0.0010757908
0.0011802613
0.0012368954
0.0011554502
0.000955382
0.00072227456
0.0005616951
0.00048069027
0.00044957788
0.00045636878
0.00052552258
0.0007598546
0.0014104022
0.0030417429
0.0011159527
0.00092658537
0.0011818433
0.0015531877
0.0020908519
0.0028730078
0.0040031956
0.0055987753
0.0077426437
0.010411806
0.013471334
0.016776899
0.020409708
0.024481744
0.029157418
0.033215697
0.033274029
0.033303272
0.033328366
0.0011681851
0.001109973
0.001045794
0.0010271579
0.0010256657
0.0010655692
0.0011664207
0.0012327071
0.0011568426
0.00094443546
0.00071385517
0.00055982221
0.00048552384
0.00045449574
0.00044772794
0.00047730652
0.00060702263
0.0009984927
0.0020092186
0.0024177114
0.00081360558
0.00094048785
0.0012032609
0.0015851254
0.0021460814
0.0029701367
0.0041684438
0.0058533609
0.0080745377
0.010742839
0.013672831
0.016732425
0.020044207
0.023754526
0.028087427
0.032816436
0.033271884
0.033301756
0.033327316
0.0011612493
0.0011192313
0.0010701757
0.0010495876
0.0010330735
0.0010553433
0.0011498828
0.0012243252
0.0011591466
0.00095002076
0.00071197759
0.00056273552
0.00049613329
0.00046937241
0.00045714633
0.00046488075
0.00053435972
0.00077511868
0.0014170855
0.0028809271
0.0010378701
0.00077220266
0.00095077302
0.0012206991
0.0016187639
0.0022129005
0.0030964336
0.0043912958
0.0062026878
0.0085301171
0.011196807
0.013964482
0.016759703
0.019758743
0.023151271
0.027138903
0.031507154
0.033269928
0.033300317
0.033326283
0.0011278604
0.0011540587
0.0010963896
0.0010750091
0.0010428046
0.0010454841
0.0011303688
0.0012117935
0.0011597495
0.0009588495
0.00072028083
0.0005693678
0.0005091762
0.00048800611
0.00047520264
0.00047108909
0.00050505614
0.00065397017
0.0010799625
0.00207072
0.0019770121
0.00070954331
0.00076860556
0.00095657285
0.0012371446
0.0016591755
0.0023000734
0.0032670288
0.0046959061
0.0066787938
0.0091348391
0.011768869
0.014320621
0.016819063
0.019516126
0.022621187
0.026301764
0.030361126
0.033268207
0.033298992
0.033325297
0.001124472
0.001136873
0.0011482826
0.0011028607
0.0010543757
0.0010359854
0.0011082804
0.0011947515
0.0011567299
0.00096764731
0.0007332078
0.00057940254
0.00052288372
0.00050722105
0.00049633256
0.00048634885
0.00049895857
0.00059034658
0.00088374648
0.0015754969
0.0029281835
0.00088192519
0.00064433391
0.00076449954
0.00095999626
0.0012568007
0.0017130239
0.0024185219
0.0035003087
0.0051135407
0.0073229887
0.0099145315
0.012445424
0.014708629
0.016879978
0.019288417
0.022127778
0.025555487
0.029324942
0.033050713
0.033297803
0.033324377
0.0011323361
0.0011546973
0.0011476117
0.0011441027
0.0010670188
0.0010267808
0.0010835732
0.0011731477
0.0011491044
0.00097508791
0.0007470223
0.00059215878
0.00053701649
0.00052563485
0.00051786649
0.00050519064
0.00050504515
0.00055972914
0.00076684322
0.001273737
0.0022712146
0.0014285541
0.00061147125
0.0006257454
0.00075809911
0.00096442502
0.0012848942
0.001788251
0.0025806016
0.0038195571
0.0056876875
0.0081920456
0.010890741
0.013198932
0.015084863
0.016913036
0.019055115
0.021661803
0.02484874
0.028379918
0.031849261
0.033296759
0.033323532
0.0010800011
0.0011622968
0.0011873485
0.0011586709
0.0011419598
0.0010166681
0.0010586743
0.0011461709
0.0011365155
0.00097999252
0.00076125835
0.00060608511
0.00055040156
0.00054407782
0.00053870687
0.00052496754
0.00051692771
0.00054813617
0.00069644803
0.0010840944
0.0018455602
0.002561604
0.00074086418
0.00053822119
0.00061132465
0.00075153779
0.00097395533
0.001327444
0.0018929544
0.0028005542
0.0042566123
0.0064842369
0.0093643416
0.012074777
0.013977109
0.015402556
0.016891908
0.018799272
0.021205653
0.024185954
0.027506233
0.03077116
0.03329586
0.033322764
0.0010068612
0.0010922867
0.0011910749
0.0012168764
0.0011702422
0.0011420485
0.0010259061
0.0011160998
0.001118587
0.00098139634
0.00077535407
0.0006213572
0.0005659585
0.00056049052
0.00055838402
0.00054449178
0.00053139709
0.00054691306
0.00065427586
0.00096067149
0.0015629386
0.0024766818
0.0010893039
0.00054450924
0.00050738626
0.00059669426
0.00074822293
0.00099328661
0.0013900367
0.0020345871
0.0030962446
0.0048595865
0.0076150765
0.010958355
0.013447042
0.014702296
0.015616178
0.016799265
0.018510466
0.020749259
0.023556006
0.026692301
0.029789374
0.032594706
0.033322066
0.00099328935
0.00099755171
0.0011028906
0.0012168413
0.0012439432
0.0011822929
0.0011444184
0.0010791808
0.0010954097
0.00097886077
0.00078855056
0.00063814851
0.00058298037
0.00057918177
0.00057698157
0.00056208288
0.00054716068
0.00055128109
0.00062912247
0.0008772633
0.0013719196
0.0021059461
0.0017358335
0.00070440851
0.00046788946
0.00048475802
0.00058429302
0.00075173264
0.0010266492
0.0014759929
0.0022208538
0.0034915123
0.0057093353
0.0092883015
0.013143281
0.0149172
0.015273707
0.015689733
0.016633264
0.018188193
0.020289067
0.02294826
0.025930353
0.028889336
0.031541895
0.032330536
0.0010388556
0.00096282926
0.00098792183
0.0011106288
0.0012383073
0.0012672146
0.0011948033
0.0011488219
0.0010676979
0.00097228205
0.00080024665
0.00065643592
0.00060249254
0.0005997791
0.00059766089
0.00057885807
0.00056003801
0.00056039865
0.00061463413
0.00081811972
0.0012371369
0.0018443697
0.0024379177
0.0010578121
0.00057421627
0.0004253176
0.00046620935
0.00057792405
0.00076615354
0.001076805
0.0015890116
0.0024602403
0.0040193848
0.0069510505
0.011932368
0.016109301
0.01627421
0.015591761
0.015613025
0.016396603
0.017833127
0.019825507
0.022364124
0.02521173
0.028055753
0.03058502
0.031386959
0.0010364097
0.00099813032
0.00093434238
0.00097714267
0.0011147088
0.0012545207
0.0012869999
0.0012075602
0.001154698
0.00096196107
0.00081012444
0.0006761194
0.00062501197
0.00062333131
0.00062029389
0.00059741312
0.00057161522
0.00056525438
0.00060923924
0.00077504816
0.0011364009
0.001649149
0.0020946283
0.0017110694
0.00089182983
0.00051993438
0.00039639342
0.00045344192
0.00058068915
0.00079442925
0.0011448142
0.0017308549
0.0027603575
0.0047280076
0.008872906
0.016642407
0.019846098
0.017165568
0.015606273
0.015401705
0.016086438
0.017448363
0.019360673
0.021800061
0.024529701
0.027276135
0.029709564
0.030531159
0.00094853915
0.0010031404
0.00095885737
0.00090740054
0.00096485825
0.0011148306
0.0012655144
0.0013035562
0.0012200011
0.0011612883
0.00081814726
0.00069717747
0.00065078372
0.00065055167
0.0006454559
0.00061753664
0.00058416772
0.00056928261
0.00059584576
0.00074270961
0.0010579714
0.0014939955
0.0018198346
0.0019319721
0.0015791883
0.00089100621
0.00050126571
0.00037724031
0.00044892542
0.00059472323
0.00083528522
0.0012289366
0.0018994654
0.0031258371
0.0056738287
0.012103097
0.0272736
0.023209934
0.01730917
0.015336261
0.01506944
0.015716205
0.017041784
0.01889549
0.021250111
0.023879061
0.026559454
0.028927291
0.029741081
0.00082457919
0.00093321329
0.00096921326
0.00092200623
0.00088200866
0.00095101024
0.0011109703
0.0012712934
0.0013161332
0.0012314895
0.0011677166
0.00071961946
0.00068004801
0.0006818419
0.00067364939
0.00063923145
0.00059729783
0.00057400583
0.00058738902
0.00069443837
0.00099316825
0.0013686962
0.0016039937
0.0015847924
0.0015426776
0.0016243806
0.00098667579
0.00050789585
0.00036730852
0.00045485296
0.00061953287
0.00088646201
0.0013262664
0.0020892837
0.0035462455
0.0068636337
0.017958543
0.028245251
0.023793464
0.016711579
0.01483316
0.014633006
0.015306664
0.016620456
0.018429401
0.020715975
0.023281738
0.025928566
0.028209385
0.028992501
0.00074338992
0.000830205
0.00091654121
0.00093617246
0.00088824529
0.00085825239
0.00093576332
0.0011032991
0.0012717057
0.0013242401
0.0012411222
0.0011725506
0.00071282541
0.00071720873
0.00070517622
0.00066291993
0.00061024499
0.00057874144
0.00058220218
0.00065782267
0.00090381207
0.0012658016
0.0014356581
0.0013267027
0.0011864876
0.0011602554
0.0012721684
0.0011814065
0.00053731624
0.00036830825
0.00047077991
0.00065257758
0.00094549269
0.0014308634
0.0022867852
0.003976721
0.0081248619
0.026157882
0.028419018
0.021154147
0.01561382
0.014171412
0.014131433
0.014871047
0.01618891
0.017968974
0.020225876
0.022769779
0.025343844
0.027445092
0.028265686
0.00074867825
0.00076865797
0.00083520211
0.00089952511
0.00090536407
0.00085800536
0.00083625321
0.00091957867
0.0010924352
0.001267039
0.0013273063
0.0012472384
0.0011758188
0.00075608963
0.00073990377
0.00068865391
0.00062330402
0.00058141351
0.00057889333
0.00063148475
0.00082645604
0.0011631222
0.001300745
0.001143528
0.00094391784
0.00084128766
0.00085398136
0.00098392752
0.0012573939
0.00058992682
0.0003769647
0.00049353256
0.00069081258
0.0010078213
0.0015344889
0.0024700365
0.0043428309
0.0089963585
0.025452615
0.028582168
0.017706402
0.014344972
0.013440316
0.01360536
0.01442345
0.015758986
0.017545463
0.019812094
0.022284841
0.024644477
0.026728692
0.027566829
0.00079715361
0.00078692181
0.00079444893
0.00083957965
0.00088314287
0.00087771941
0.00083146949
0.00081615472
0.00090306968
0.00107933
0.0012582069
0.0013249729
0.001250748
0.0011772947
0.00077714995
0.00071621806
0.00063651138
0.00058206492
0.00057355198
0.00061266033
0.00076440353
0.0010612202
0.0012424657
0.0010110633
0.00077674086
0.00063443958
0.00057850319
0.00061703283
0.00075750155
0.0010311891
0.00062324878
0.00038957583
0.00052004083
0.00073098473
0.0010685701
0.0016278101
0.0026177108
0.0045705152
0.0090102839
0.018405938
0.019095427
0.014889131
0.013120095
0.012712646
0.013080567
0.013980612
0.015361414
0.017186563
0.019408845
0.021604935
0.024047134
0.026122628
0.026926164
0.00081577041
0.00083827569
0.00082506632
0.00081886058
0.00084354751
0.00086822783
0.00085372451
0.00080860968
0.00079803083
0.00088676057
0.0010652413
0.0012472259
0.0013208735
0.0012524416
0.0011766639
0.00074509207
0.00064980366
0.00058065699
0.00056520507
0.00059707882
0.00071486264
0.0009700954
0.0011685968
0.0009990541
0.0006677609
0.00050558729
0.0004226003
0.00039894116
0.00044719519
0.00058431016
0.00089031515
0.00058575654
0.00040629924
0.00054753145
0.00077000756
0.0011234204
0.0017037103
0.0027138199
0.0046064
0.0082478774
0.013271854
0.014073311
0.012769552
0.012030177
0.012030318
0.012573662
0.013568138
0.015016328
0.016826832
0.018777139
0.021094577
0.02356889
0.025560979
0.026269122
0.00077450994
0.000854504
0.00087719536
0.00085963952
0.00084080232
0.00084737003
0.00085535633
0.00083341525
0.00078921245
0.00078169728
0.0008710451
0.0010524592
0.0012411163
0.0013160738
0.001252475
0.001173849
0.00066289231
0.0005772029
0.0005535647
0.00058161052
0.00067499754
0.00088992263
0.00108922
0.00097717806
0.00065682701
0.00042922307
0.00033969869
0.00029801175
0.00029418399
0.00034219421
0.00048552291
0.00083573737
0.00048737118
0.00042551062
0.00057403258
0.00080565161
0.0011693662
0.0017569366
0.0027447423
0.0044483598
0.0072206737
0.010210679
0.01130995
0.011179597
0.011099035
0.011404655
0.012101748
0.01319759
0.014667955
0.016234098
0.018339039
0.020758895
0.023183704
0.024921472
0.02565323
0.00067528521
0.0008035506
0.00089259074
0.00091248373
0.00088841406
0.00086032526
0.00085130763
0.00084473846
0.00081656255
0.00077255572
0.00076675327
0.00085805508
0.0010462289
0.0012371931
0.0013117078
0.0012515946
0.0011696433
0.00057181473
0.00053840804
0.00056524883
0.00064148703
0.00082019932
0.0010095422
0.00094391883
0.0006520566
0.00041122165
0.00029593586
0.00025596532
0.00023937981
0.00024668358
0.00029395837
0.00045071079
0.00086207031
0.00039600651
0.0004441224
0.00059857753
0.00083647369
0.0012040024
0.0017822266
0.0027078402
0.0041776686
0.0062867663
0.0083743731
0.0095494729
0.0099810238
0.01030726
0.010831821
0.01166761
0.012832237
0.014104801
0.015841587
0.018120559
0.020506937
0.022647792
0.024358078
0.025046056
0.00056461237
0.00068613279
0.00083209712
0.0009288139
0.00094392188
0.00091323378
0.00087775615
0.0008552672
0.00083612698
0.00080230779
0.00075869188
0.00075289443
0.0008491849
0.0010438577
0.0012375332
0.0013103553
0.0012518479
0.0011663157
0.00052002651
0.00054577444
0.00061225225
0.00075975293
0.00093253011
0.00090222849
0.00064476972
0.0004049297
0.0002801196
0.00023585526
0.00022322852
0.00022135776
0.00022989753
0.00028106265
0.00046606669
0.00096997823
0.00036174622
0.00046129571
0.00062047823
0.00086116208
0.0012247972
0.0017790522
0.0026244282
0.0038880113
0.0055427453
0.0071747866
0.00834605
0.0090550447
0.0096145713
0.01030528
0.011262284
0.012291083
0.013738949
0.015705378
0.017973965
0.020050672
0.022193665
0.023781196
0.024465855
0.00049923652
0.00055582213
0.00069529397
0.00085858145
0.00096261647
0.00097292468
0.00093572659
0.00089271385
0.00085871814
0.00082917627
0.0007906396
0.00074349985
0.00074062979
0.00084320001
0.0010470751
0.001246237
0.0013164348
0.0012571742
0.0011697138
0.00052183605
0.00058517838
0.0007068557
0.00085994854
0.00085466154
0.00063386321
0.00040127337
0.00027295908
0.00022631113
0.00021488261
0.00021450224
0.00021585049
0.00022635106
0.0002913848
0.00053030669
0.00058085341
0.00036827401
0.00047704613
0.00063888665
0.00087849106
0.0012315988
0.001754659
0.0025253984
0.003615979
0.0049630676
0.0063383728
0.0074787124
0.0082925944
0.0089951096
0.0098502706
0.010739216
0.011931872
0.013655377
0.015617439
0.017593657
0.019687838
0.021708465
0.023239875
0.023903416
0.0004947225
0.00047752817
0.00054625805
0.000701311
0.00088207327
0.00099374677
0.00099925454
0.0009548484
0.00090464035
0.00086166192
0.00082347743
0.00077656489
0.00072864079
0.00072940604
0.00084101103
0.0010598541
0.0012697499
0.0013373818
0.0012750669
0.0011911386
0.00055739237
0.00066005362
0.00079241863
0.00080319633
0.00061871987
0.00039893345
0.00026846172
0.00021885862
0.0002088823
0.00020627534
0.0002090505
0.00021327284
0.00023116843
0.00032505019
0.00065390268
0.00036298495
0.00038041154
0.00049085288
0.00065313258
0.00088837613
0.0012281717
0.0017201346
0.0024236206
0.0033694888
0.0045172685
0.0057322165
0.0067899137
0.007632972
0.00850116
0.0093537582
0.01038048
0.011870929
0.013591051
0.015294755
0.017311105
0.019282326
0.021257586
0.022708324
0.023363947
0.00052797833
0.00046670203
0.00045690082
0.00053550005
0.00070364022
0.00090179414
0.0010224593
0.0010233064
0.00097079019
0.00091444055
0.00086404532
0.00081433473
0.00076154699
0.00071277835
0.00071959119
0.00084579243
0.0010885616
0.0013183293
0.0013852858
0.0013203243
0.0012515382
0.00061771488
0.00072995761
0.00074973104
0.00059887738
0.00039663548
0.0002658436
0.00021406135
0.00020099872
0.00019817794
0.00019845706
0.00020527246
0.00021413432
0.00024575306
0.00039176838
0.00082506461
0.00031512893
0.00039094175
0.0005022337
0.00066317054
0.00089239334
0.0012187252
0.0016813171
0.0023206464
0.0031583617
0.004174888
0.0052428908
0.0061969444
0.0071421299
0.0080534285
0.0089945272
0.010323771
0.011809363
0.013307867
0.01506978
0.016982256
0.018904795
0.020806215
0.022201527
0.022843813
0.00057817896
0.00049731254
0.00044041225
0.00043783295
0.00052368107
0.00070227037
0.00091751888
0.0010494
0.0010464874
0.00098531584
0.0009222859
0.0008607641
0.00080208718
0.00074444554
0.00069608303
0.00071304937
0.00086264825
0.0011436084
0.0014081523
0.0014804995
0.0014167754
0.0013877549
0.00067245687
0.00069582315
0.00057459327
0.00039319168
0.00026464382
0.00021000069
0.00019639329
0.00019079097
0.00018742982
0.00019341881
0.00020462139
0.00021943392
0.00027674643
0.00050871088
0.00039968328
0.00032086705
0.00039977813
0.00051112148
0.00066971224
0.00089270958
0.001205499
0.0016389554
0.0022255239
0.0029874382
0.0038830969
0.0048002433
0.0057731158
0.006778041
0.0077092262
0.0089299492
0.010253931
0.011553999
0.013119724
0.014797276
0.016672848
0.018522734
0.020375762
0.021707981
0.022386604
0.00061958362
0.00054042232
0.00046736781
0.00041689621
0.00042073937
0.00051113491
0.00069754312
0.00092926506
0.0010751917
0.0010703388
0.00099878833
0.00092373369
0.00085086136
0.00078696962
0.00072479507
0.00067944506
0.00071375286
0.00090073358
0.0012420661
0.0015649489
0.001653563
0.001601555
0.0016630044
0.00064283474
0.00054667274
0.00038797096
0.0002643806
0.00020724666
0.00019226456
0.00018627288
0.00017972991
0.00018073846
0.00019244173
0.00020726487
0.00023206816
0.00033742526
0.00068945522
0.00028321034
0.0003289983
0.0004069855
0.00051775514
0.00067365907
0.00089027623
0.0011892555
0.0015977691
0.0021463304
0.0028336069
0.0035980307
0.0044853058
0.0055218712
0.0064756173
0.00763696
0.0088551001
0.010020023
0.011388856
0.012885231
0.014539967
0.016357069
0.018156834
0.019949304
0.021235387
0.021965144
0.00059192561
0.00057130453
0.00050459733
0.00043955358
0.00039661897
0.00040578055
0.00049834294
0.00069020054
0.00093744403
0.0011005978
0.0010965605
0.0010098217
0.00091580692
0.00083824239
0.00076844447
0.00070306205
0.00066564724
0.00072934063
0.00097574967
0.001413103
0.0018291704
0.0019505321
0.0019429843
0.00219165
0.00051616351
0.00038072203
0.00026456967
0.000205867
0.0001896127
0.0001842032
0.00017604298
0.00017200807
0.00017890688
0.00019481158
0.00021374418
0.00025965865
0.00044605916
0.00040892203
0.00027611151
0.00033499531
0.00041256994
0.00052240494
0.00067526746
0.00088524409
0.0011724326
0.0015624448
0.0020660401
0.0026605083
0.0033993108
0.0043468678
0.005290136
0.0064073295
0.0075717912
0.0086441708
0.0098690206
0.011181089
0.012663982
0.014275248
0.016052538
0.017788419
0.019542104
0.020786748
0.021563367
0.00048434618
0.00054476479
0.00052713868
0.00047116028
0.00041461394
0.00037956252
0.00039286465
0.00048597958
0.00068131495
0.00094262414
0.0011265751
0.001125389
0.0010147009
0.00090824068
0.00082256053
0.00074678828
0.00068165126
0.00066126518
0.00077402213
0.001116121
0.0017069915
0.0022662345
0.002449798
0.0025711564
0.0031837557
0.00037060436
0.00026480736
0.00020591256
0.00018844387
0.00018429975
0.00017672375
0.00016807029
0.00016821858
0.00018073797
0.00020032542
0.00022625912
0.0003167954
0.00060858372
0.00026287921
0.00028187746
0.00033913082
0.00041660263
0.00052523119
0.00067503499
0.00087959016
0.0011578476
0.0015219524
0.0019638579
0.0025395991
0.0033365391
0.0041978056
0.0052448692
0.0063744442
0.0073912653
0.0085061249
0.0096803546
0.010986122
0.012435801
0.014018171
0.015740555
0.017434994
0.01915701
0.020359978
0.02118087
0.00035815476
0.00045327287
0.00050074949
0.00048683689
0.00044052458
0.00039274473
0.00036524738
0.00038179748
0.00047482745
0.00067188991
0.00094555386
0.0011526418
0.0011593038
0.0010253216
0.00090023461
0.00080464593
0.00072449457
0.00066687342
0.00068062221
0.0008737431
0.0013703618
0.0022097271
0.0029785706
0.0032931416
0.0037194214
0.0049752876
0.00026461388
0.00020746365
0.00018890588
0.00018623339
0.00018082824
0.00017024009
0.00016171163
0.00016782894
0.00018529605
0.00020948139
0.00025264679
0.00041874683
0.00038435768
0.00024281792
0.00028620186
0.00034190924
0.00041925136
0.00052679941
0.00067437717
0.00087480051
0.0011382569
0.0014641803
0.0018982243
0.0025273261
0.003253788
0.004188677
0.0052626421
0.0062354749
0.0072704113
0.008336033
0.0095046464
0.010784997
0.012212838
0.013751815
0.015440695
0.017104119
0.018789141
0.019951567
0.020818678
0.00026381943
0.00034514461
0.00042260051
0.00046028942
0.00045006386
0.00041280765
0.0003736531
0.00035291428
0.00037245964
0.00046544257
0.00066313813
0.00094992349
0.0012067759
0.001204505
0.0010414816
0.00089415842
0.00078793652
0.00070817285
0.00067117775
0.00074730961
0.0010707362
0.0018236986
0.0030609138
0.0041166764
0.0047237606
0.0057286515
0.0079224015
0.00021041739
0.00019133788
0.00018995928
0.00018770575
0.0001776555
0.00016219234
0.00015680329
0.00017089783
0.00019227389
0.00022368564
0.00030798782
0.00055423638
0.00024403973
0.00024488564
0.00028872313
0.00034361187
0.00042105501
0.00052823038
0.00067411818
0.00086610937
0.0011047906
0.0014281315
0.0019113375
0.0024948299
0.0032845577
0.0042580673
0.005174393
0.006140771
0.0071228966
0.0081784487
0.0093234097
0.010588544
0.011980349
0.013494854
0.01516467
0.016786936
0.018433862
0.019565599
0.020475647
0.00021453499
0.00026300775
0.00033132171
0.00039347283
0.00042373265
0.00041678074
0.00038781475
0.0003567074
0.00034208516
0.00036445678
0.00045816345
0.00066117587
0.00099761701
0.0012806121
0.0012644348
0.0010671435
0.00089534479
0.0007800213
0.00071028313
0.00071544872
0.0008942123
0.0014367042
0.0026340526
0.0044405732
0.0058873744
0.0070373469
0.0088653625
0.010241966
0.0001958724
0.00019571385
0.0001969765
0.00018952481
0.00016945729
0.00015198285
0.00015542878
0.0001772796
0.00020129505
0.0002504926
0.0003998199
0.00035019911
0.00021535915
0.00024703711
0.00028969311
0.00034478064
0.00042290538
0.00052992466