/*--------------------------------*- C++ -*----------------------------------*\
  =========                 |
  \\      /  F ield         | OpenFOAM: The Open Source CFD Toolbox
   \\    /   O peration     | Website:  https://openfoam.org
    \\  /    A nd           | Version:  8
     \\/     M anipulation  |
\*---------------------------------------------------------------------------*/
FoamFile
{
    version     2.0;
    format      ascii;
    class       volScalarField;
    location    "399.966377299886858";
    object      omega_0;
}
// * * * * * * * * * * * * * * * * * * * * * * * * * * * * * * * * * * * * * //

dimensions      [0 0 -1 0 0 0 0];

internalField   nonuniform List<scalar> 
9200
(
0.0044990535
0.0045085063
0.0044999753
0.0045206908
0.0045091184
0.0044990273
0.0045395735
0.0045209459
0.0045079298
0.004498568
0.0045670907
0.0045395598
0.0045196558
0.0045072516
0.0044977248
0.0046080588
0.0045668084
0.0045382025
0.0045188418
0.0045061118
0.0044969391
0.004670448
0.0046074271
0.004565608
0.0045372438
0.0045174717
0.0045050146
0.004496218
0.0047693139
0.0046690385
0.0046065802
0.0045646666
0.004535512
0.0045160904
0.0045039973
0.0044957549
0.0049359416
0.0047661949
0.0046687059
0.0046058645
0.0045625571
0.0045336265
0.0045147914
0.0045033035
0.0044956291
0.0052334618
0.0049276993
0.0047664255
0.0046684908
0.0046033846
0.0045599458
0.0045317931
0.0045138854
0.0045030363
0.0044958706
0.005756894
0.005213172
0.0049281198
0.0047672827
0.0046655853
0.0045996979
0.0045572424
0.0045304634
0.0045135085
0.0045032269
0.0044964459
0.0067047877
0.0057171465
0.0052142682
0.0049310159
0.0047638123
0.0046601729
0.0045955398
0.0045551951
0.0045298396
0.0045136954
0.0045038215
0.0044972738
0.0085843666
0.0066287103
0.0057219801
0.0052194234
0.004926642
0.0047553229
0.0046534882
0.004592252
0.004554137
0.0045299713
0.0045143689
0.0045047082
0.0044982479
0.012372668
0.008407155
0.006645702
0.0057294231
0.0052119383
0.0049123756
0.004744027
0.0046479966
0.0045904343
0.0045541491
0.0045307388
0.0045153676
0.0045057497
0.004499261
0.019793835
0.012089402
0.008452303
0.0066631672
0.0057134049
0.0051858416
0.004892249
0.0047342117
0.0046448272
0.0045901919
0.0045550423
0.0045318957
0.0045165021
0.0045068144
0.0045002217
0.033848161
0.019743074
0.012315998
0.0085023623
0.0066244048
0.0056637545
0.0051476497
0.0048731078
0.0047281718
0.0046440198
0.0045912027
0.0045564244
0.0045331608
0.004517602
0.0045077978
0.0045010656
0.059531359
0.035040405
0.020811566
0.012532108
0.0084013099
0.0065115166
0.0055919212
0.0051085246
0.0048595827
0.0047257703
0.0046449968
0.0045928332
0.0045578617
0.0045342968
0.0045185445
0.0045086334
0.0045017598
0.10057204
0.064426117
0.038868445
0.021732361
0.012273864
0.0081078967
0.0063562832
0.0055167315
0.0050775135
0.0048523938
0.0047258934
0.0046467166
0.0045944105
0.0045590087
0.0045351511
0.0045192645
0.0045092943
0.004502301
0.15465712
0.11267249
0.074342667
0.042066777
0.021194583
0.01143014
0.0077222853
0.0062021737
0.0054533056
0.0050580912
0.0048492791
0.004726837
0.0046481169
0.0045954164
0.0045596666
0.0045356633
0.0045197517
0.0045097883
0.0045027125
0.21318344
0.17622375
0.13239368
0.082301084
0.041048662
0.01888205
0.010349482
0.0073645893
0.0060778494
0.0054083087
0.0050471801
0.0048478074
0.0047271869
0.0046485217
0.0045956129
0.0045597895
0.0045358538
0.0045200391
0.0045101486
0.0045030324
0.26642479
0.2430841
0.20698886
0.14714719
0.080376758
0.035010857
0.015858049
0.0094189762
0.0070989324
0.0059900986
0.005379872
0.0050405265
0.004846007
0.0047261897
0.0046476873
0.0045950062
0.0045594532
0.0045358016
0.0045201883
0.0045104231
0.0045033038
0.309493
0.30040618
0.28208889
0.22817481
0.14351935
0.06710675
0.027053051
0.013297688
0.0088003798
0.0069256884
0.0059315606
0.005360474
0.0050340875
0.0048423584
0.0047234185
0.0046456882
0.0045937781
0.0045588124
0.004535617
0.0045202733
0.0045106647
0.0045035708
0.34250629
0.34359952
0.34225905
0.30742276
0.22239392
0.11959021
0.049118894
0.020645506
0.011723498
0.0084340691
0.0068129522
0.0058900143
0.0053427349
0.0050247887
0.0048362153
0.0047190784
0.0046428869
0.0045922032
0.0045580573
0.0045354162
0.0045203674
0.0045109245
0.0045038732
0.36733721
0.3741392
0.38455
0.36923833
0.30064361
0.18780232
0.086309814
0.034162361
0.016801774
0.010887181
0.0082274627
0.0067392092
0.0058541092
0.0053218805
0.0050120545
0.0048281741
0.0047138347
0.004639771
0.004590581
0.0045573723
0.0045353028
0.0045205338
0.0045112457
0.0045042429
0.38593128
0.3952054
0.41188537
0.41089414
0.36504771
0.25979385
0.1378443
0.057630557
0.025262556
0.01485552
0.010497445
0.0081136592
0.006684308
0.0058151859
0.005296761
0.0049972797
0.0048194158
0.0047084854
0.0046368165
0.0045891859
0.0045569079
0.0045353567
0.0045208196
0.0045116611
0.0045047023
0.39979353
0.40963915
0.42901466
0.4383763
0.41155088
0.32470076
0.19738926
0.092523358
0.039822999
0.021144757
0.01409243
0.010344762
0.0080479121
0.0066283768
0.0057700713
0.0052696076
0.0049825741
0.0048111738
0.0047037738
0.0046344358
0.0045882407
0.0045567681
0.0045356286
0.0045212536
0.0045121909
0.0045052628
0.41011292
0.41938544
0.43899396
0.45556583
0.44385846
0.37776736
0.25762155
0.13753058
0.063674679
0.032123902
0.0200531
0.013988232
0.010300971
0.0079790357
0.0065605886
0.0057215293
0.0052439837
0.0049698724
0.0048044904
0.0047003221
0.0046329502
0.0045878892
0.0045570084
0.0045361395
0.004521847
0.0045128425
0.0045059254
0.41779639
0.42588571
0.44407015
0.46518566
0.46623769
0.41985848
0.31396484
0.18942931
0.099511386
0.052382461
0.03163541
0.020818659
0.014243664
0.010237051
0.0078741493
0.0064817235
0.005675484
0.0052230907
0.0049605481
0.0048001284
0.004698558
0.0046325469
0.0045881894
0.0045576382
0.0045368842
0.0045225953
0.0045136121
0.0045066809
0.42351244
0.4301983
0.44596162
0.46942268
0.48079571
0.45304699
0.36475499
0.2441274
0.14742644
0.088930795
0.056132052
0.035963384
0.022769257
0.014537725
0.010056238
0.0077304818
0.0064005469
0.005637888
0.005208892
0.0049553029
0.0047985341
0.0046986385
0.004633252
0.0045891201
0.0045586264
0.0045378379
0.0045234796
0.0045144841
0.0045075123
0.42772936
0.43308718
0.44599782
0.47006562
0.48898392
0.47792045
0.4091706
0.29795169
0.2030702
0.14418627
0.10491057
0.071441667
0.043781268
0.024983124
0.014473198
0.0097397057
0.0075703729
0.0063274522
0.0056122917
0.0052018004
0.0049543017
0.0047996874
0.004700403
0.0046349355
0.0045905858
0.0045599099
0.0045389605
0.004524467
0.0045154335
0.0045083965
0.43097012
0.4350354
0.44508461
0.46862877
0.49249585
0.49525386
0.44639966
0.34798209
0.2604655
0.21043363
0.17972566
0.14250839
0.095226479
0.052468286
0.025890432
0.01383437
0.0093455579
0.0074216498
0.0062713005
0.0055988857
0.0052012037
0.0049570515
0.00480313
0.0047035414
0.0046373906
0.0045924719
0.0045614076
0.004540196
0.0045255218
0.0045164328
0.0045093073
0.43317735
0.43639727
0.44383706
0.4661466
0.49287319
0.50648726
0.47637508
0.39247188
0.31426287
0.27786018
0.26722127
0.24591196
0.19302479
0.11981599
0.056619576
0.024539685
0.012771303
0.0089667012
0.0072973756
0.0062354113
0.005595517
0.0052055413
0.0049627454
0.0048082953
0.0047076539
0.0046403678
0.0045946295
0.0045630259
0.0045414817
0.0045266104
0.0045174516
0.0045102173
0.43428561
0.43733297
0.44262408
0.46332991
0.49136314
0.51303887
0.49972662
0.43080679
0.36172771
0.33804364
0.35053562
0.36026995
0.32705758
0.24013729
0.13075165
0.053001218
0.021387426
0.011657139
0.0086659555
0.0071966976
0.0062154875
0.0055985173
0.0052133882
0.0049704614
0.0048145266
0.004712267
0.0046435979
0.0045968993
0.0045646712
0.0045427656
0.004527692
0.0045184588
0.0045111002
0.43432728
0.43786884
0.44115777
0.46073439
0.48885853
0.51632168
0.51736043
0.46308166
0.4021911
0.38802214
0.41798189
0.45909627
0.46406297
0.3951797
0.25880886
0.12114777
0.043493514
0.017811792
0.01077745
0.0084469357
0.0071207569
0.0062042058
0.005605276
0.0052232113
0.0049791296
0.0048211148
0.0047169404
0.0046468227
0.0045991306
0.0045662665
0.0045440007
0.0045287315
0.0045194261
0.0045119325
0.43338053
0.43804952
0.44009295
0.45764428
0.4857973
0.51737464
0.5304119
0.48976876
0.43604419
0.42798595
0.46831921
0.52887047
0.56944828
0.5410976
0.41825517
0.23926606
0.096087253
0.032852273
0.014949068
0.010205312
0.0082713663
0.0070615694
0.0061967914
0.0056132208
0.0052332792
0.0049876202
0.0048273759
0.0047212943
0.0046498069
0.0046011928
0.0045677398
0.0045451439
0.0045297001
0.0045203287
0.0045126948
0.43155298
0.43789926
0.4395913
0.45541056
0.48169777
0.51606277
0.54021909
0.51148608
0.46406795
0.45935513
0.50410061
0.57316565
0.63125794
0.64256473
0.56306406
0.38854827
0.1908832
0.067162747
0.024454672
0.013149118
0.0098528485
0.0081321664
0.0070111678
0.0061890208
0.0056196468
0.0052418826
0.0049949123
0.0048327405
0.0047250165
0.0046523597
0.0046029812
0.0045690351
0.0045461647
0.0045305726
0.0045211466
0.0045133724
0.42899906
0.43744991
0.43979883
0.45418732
0.47814786
0.51244752
0.5460314
0.52947838
0.48711181
0.48376921
0.52897336
0.59856389
0.66231768
0.69346842
0.66147734
0.52922001
0.31807307
0.1334012
0.044598365
0.019118666
0.012149292
0.0095833263
0.0080184241
0.0069625316
0.0061769184
0.0056221245
0.0052476001
0.0050002255
0.0048367939
0.0047278846
0.0046543756
0.0046044268
0.0045701135
0.0045470376
0.0045313315
0.0045218653
0.0045139556
0.42592762
0.43675421
0.44079744
0.45420931
0.47542203
0.50838856
0.54768603
0.54533458
0.50588776
0.50255658
0.54602132
0.61234357
0.67349574
0.71094901
0.71166091
0.6324523
0.44951255
0.2297469
0.084753101
0.03112364
0.016138289
0.011581727
0.0093526435
0.0079167576
0.0069096579
0.0061573743
0.0056188533
0.0052494628
0.0050030663
0.0048392847
0.0047297778
0.0046557889
0.0046054864
0.0045709491
0.004547745
0.0045319649
0.0045224758
0.0045144398
0.42259322
0.43590585
0.44263139
0.45558654
0.47376772
0.50430948
0.54716063
0.5568671
0.52237654
0.51718773
0.55715595
0.61875459
0.67504225
0.7120278
0.72884947
0.69396818
0.55987147
0.34142211
0.14888512
0.053221767
0.023650514
0.014564999
0.0112015
0.0091571439
0.0078165975
0.006848261
0.0061285476
0.0056088476
0.0052470022
0.0050032242
0.0048401234
0.0047306736
0.0046565716
0.004606149
0.0045715304
0.0045482789
0.0045324677
0.0045229739
0.0045148245
0.41930621
0.43505025
0.44531777
0.4583485
0.47331126
0.50048962
0.54496103
0.56466677
0.53711553
0.52704833
0.5649041
0.6203375
0.67115144
0.7056179
0.7291588
0.72395761
0.63967653
0.44942417
0.2317368
0.091167376
0.036555468
0.019601373
0.013728425
0.010864166
0.0089783593
0.0077102167
0.0067759534
0.0060899722
0.0055919633
0.0052402205
0.0050007408
0.0048393558
0.0047305934
0.0046567354
0.0046064201
0.00457186
0.0045486388
0.0045328392
0.00452336
0.0045151128
0.43438456
0.41640636
0.44887254
0.46243321
0.47406503
0.49721793
0.54140701
0.56924226
0.54942575
0.53601641
0.56736618
0.62028311
0.66484974
0.69586311
0.72191324
0.73482023
0.69104506
0.54126933
0.32269556
0.14497101
0.0571798
0.027982644
0.017521381
0.013220964
0.010566006
0.008802113
0.0075919886
0.0066922448
0.0060424464
0.0055687938
0.005229504
0.0049958506
0.0048371356
0.0047295897
0.0046563184
0.0046063211
0.004571946
0.0045488297
0.0045330829
0.0045236382
0.0045153109
0.45333074
0.43420031
0.41434954
0.46769094
0.47591795
0.49460463
0.53698855
0.57090542
0.55880032
0.54366038
0.56878889
0.61698056
0.65799139
0.68487899
0.71126076
0.73510844
0.72102272
0.61263546
0.41091181
0.21010937
0.088273474
0.04052189
0.023524522
0.016462245
0.012794596
0.010288256
0.0086189621
0.0074575729
0.0065984469
0.0059877369
0.0055404709
0.005215497
0.0049889083
0.0048336224
0.0047277529
0.0046553753
0.0046058838
0.004571805
0.0045488617
0.004533206
0.0045238156
0.0045154267
0.4738928
0.45881744
0.43490351
0.4131638
0.47866525
0.49268383
0.53192743
0.57006643
0.56513199
0.54976826
0.56905083
0.61143263
0.65081912
0.67368968
0.69945867
0.72957034
0.73683643
0.66495371
0.48930248
0.28041678
0.12955805
0.058183681
0.032550771
0.02129138
0.015851553
0.012385516
0.010012257
0.0084235007
0.0073072984
0.0064973402
0.0059281806
0.005508422
0.0051989669
0.0049803138
0.0048289939
0.0047251952
0.0046539709
0.0046051448
0.0045714599
0.0045487485
0.0045332184
0.0045239014
0.0045154695
0.48209041
0.48069994
0.46556604
0.43608683
0.41294328
0.49117982
0.52716555
0.56675819
0.56855311
0.55419425
0.56851492
0.60535651
0.64042022
0.66407065
0.68792878
0.72121287
0.74355369
0.70221926
0.55535884
0.35012245
0.17793382
0.082197367
0.044989516
0.028690063
0.020194782
0.015380536
0.011990938
0.0097264275
0.0082136881
0.0071458089
0.0063925937
0.0058662757
0.0054741359
0.0051806837
0.0049704101
0.0048234526
0.0047220368
0.0046521741
0.0046041443
0.0045709345
0.0045485055
0.0045331319
0.0045239058
0.0045154491
0.49047905
0.48586651
0.48753503
0.4716163
0.43784111
0.41370798
0.5202341
0.56239088
0.56915835
0.55686519
0.5674439
0.59933615
0.6316802
0.65217857
0.67729653
0.71189384
0.74491215
0.72816475
0.60971291
0.41531727
0.2302952
0.11286178
0.061292988
0.039627728
0.026978765
0.01958593
0.014915215
0.011590684
0.0094261398
0.0079902427
0.0069795804
0.0062881211
0.0058043166
0.0054389102
0.0051612897
0.004959536
0.0048172026
0.0047183957
0.0046500533
0.0046029231
0.0045702543
0.0045481496
0.0045329593
0.0045238396
0.0045153755
0.51397231
0.49062863
0.48960429
0.49378018
0.47738093
0.44014511
0.41543454
0.55496541
0.56723109
0.55788728
0.56594723
0.59389449
0.6239558
0.64264063
0.66406279
0.70127179
0.74362356
0.7464738
0.65404139
0.47436259
0.28395892
0.14908914
0.081894045
0.054618844
0.038021045
0.026393646
0.019138501
0.014424833
0.011174243
0.0091128113
0.0077562512
0.0068154453
0.0061871434
0.0057439947
0.005403786
0.0051413286
0.0049480096
0.0048104334
0.004714382
0.0046476733
0.0046015207
0.0045694446
0.0045476981
0.0045327134
0.0045237135
0.0045152579
0.54650181
0.50912525
0.49127025
0.49288743
0.49895449
0.4823886
0.44296137
0.41800792
0.56325023
0.55743341
0.56417247
0.58930156
0.61812263
0.63504824
0.65271515
0.68658181
0.7370572
0.76213879
0.6906514
0.52676447
0.33703289
0.18965857
0.1076784
0.073857911
0.054838601
0.038551106
0.026344777
0.018715069
0.013904296
0.010743293
0.0087924437
0.0075154387
0.0066585172
0.0060920358
0.0056866406
0.0053695648
0.0051212495
0.0049361077
0.0048033111
0.0047100947
0.0046450935
0.0045999738
0.0045685293
0.0045471678
0.004532407
0.0045235384
0.0045151051
0.55773732
0.53824831
0.50554997
0.49209976
0.49535952
0.50264074
0.48663833
0.44617133
0.42121008
0.55581771
0.56232263
0.58579819
0.61441104
0.63026778
0.6433456
0.67258089
0.72420682
0.76987111
0.72640289
0.57374815
0.38810914
0.23364262
0.13994619
0.09855148
0.07783787
0.059174725
0.040426392
0.02653561
0.018271129
0.013360633
0.010304799
0.0084673926
0.0072796193
0.0065131771
0.0060045992
0.0056331773
0.0053368121
0.0051013976
0.0049240563
0.0047959756
0.0047056211
0.0046423671
0.004598316
0.004567531
0.0045465744
0.0045320518
0.004523324
0.0045149252
0.55345802
0.55143257
0.53097119
0.50303416
0.4929032
0.49678115
0.50470347
0.49005562
0.44953132
0.42474065
0.56065954
0.5836253
0.61296389
0.62854854
0.63661335
0.66002316
0.70988067
0.76758698
0.76243615
0.61926333
0.43694684
0.28011402
0.18024736
0.13270795
0.10998033
0.08966973
0.066625538
0.043196389
0.026845559
0.017814682
0.012794212
0.0098562946
0.0081441467
0.007060986
0.0063824848
0.0059258638
0.0055841487
0.0053058542
0.0050820155
0.0049120322
0.0047885438
0.0047010349
0.0046395405
0.0045965773
0.0045664699
0.0045459324
0.0045316587
0.0045230793
0.0045147252
0.55949992
0.55085045
0.54510968
0.52498812
0.50150882
0.49353896
0.49697831
0.50496349
0.49222759
0.45272953
0.42823313
0.5830454
0.61381378
0.62984256
0.63278873
0.64936705
0.69534216
0.75992559
0.7845874
0.67860602
0.4843296
0.32791598
0.22843253
0.18111819
0.15966993
0.13711552
0.10854827
0.07671493
0.046622767
0.027275244
0.017290585
0.012184738
0.0094064313
0.007833612
0.0068665916
0.0062680339
0.0058562134
0.0055397667
0.0052767082
0.0050632659
0.0049001731
0.0047811123
0.0046963964
0.0046366529
0.0045947838
0.0045653637
0.0045452543
0.0045312379
0.0045228127
0.0045145109
0.58427125
0.55918825
0.54844791
0.53949709
0.52054131
0.50092862
0.49389521
0.4957959
0.50313028
0.4927628
0.45531196
0.43100992
0.61699147
0.63382635
0.63184669
0.64112253
0.68123493
0.74920007
0.79581205
0.72999114
0.54787324
0.37539858
0.28173916
0.24338244
0.23428824
0.21871153
0.18162805
0.13482108
0.089117544
0.050633135
0.027478101
0.016586835
0.011539056
0.0089714543
0.0075486954
0.006700046
0.0061700783
0.0057957261
0.005499463
0.0052493394
0.0050452629
0.0048885845
0.0047737548
0.0046917548
0.0046337369
0.0045929573
0.0045642279
0.0045445523
0.0045307988
0.0045225312
0.0045142851
0.62233808
0.58751389
0.56009283
0.54667477
0.53521922
0.5177986
0.50125184
0.49393088
0.49317357
0.4990056
0.49117417
0.456497
0.43301183
0.63987264
0.63325069
0.63526619
0.66875746
0.73609476
0.79997805
0.77012213
0.61141102
0.43024474
0.33446584
0.31434099
0.32943614
0.34033984
0.31437702
0.24715204
0.16910832
0.10356324
0.053799871
0.026923929
0.015678943
0.01088644
0.0085704494
0.0073038669
0.006561918
0.0060878656
0.0057434363
0.005462838
0.0052237065
0.0050280807
0.0048773384
0.0047665244
0.0046871484
0.004630819
0.0045911165
0.0045630772
0.0045438381
0.0045303489
0.0045222306
0.0045139657
0.64694861
0.62963945
0.59255925
0.56220077
0.54595011
0.53271584
0.51684076
0.50243566
0.49362095
0.48912344
0.49252337
0.4869788
0.45611254
0.43377317
0.63602833
0.63143634
0.6585141
0.72283818
0.79734631
0.80030937
0.67007563
0.48920234
0.37720669
0.38339827
0.4314786
0.48468618
0.50026986
0.4486288
0.33454641
0.21159824
0.11575675
0.054175954
0.025436191
0.014631791
0.010266495
0.0082204376
0.0071051986
0.0064504609
0.0060202331
0.00569772
0.0054293978
0.0051998804
0.0050117453
0.0048664762
0.0047594592
0.0046826068
0.0046279209
0.0045892794
0.0045619263
0.0045431198
0.0045298751
0.0045217699
0.0045136327
0.63892114
0.65355388
0.63765385
0.59851134
0.56552564
0.54662912
0.53223323
0.51767414
0.50437798
0.49288476
0.48374458
0.48386823
0.48027766
0.45372759
0.4325467
0.62901092
0.65080513
0.7109287
0.7907161
0.82052682
0.72143047
0.5490452
0.42433951
0.41947389
0.52500244
0.62494102
0.70144008
0.70763323
0.61169398
0.43645022
0.24959745
0.11980181
0.051096169
0.023239221
0.01355644
0.0097155859
0.0079320528
0.0069503139
0.0063626791
0.0059648262
0.0056575796
0.0053989477
0.005177771
0.004996243
0.0048560187
0.0047525874
0.0046781537
0.0046250638
0.0045874638
0.0045607837
0.0045423667
0.004529036
0.0045213033
0.0045132966
0.62723689
0.64062569
0.65801329
0.6443101
0.60478926
0.57007837
0.54894879
0.53383428
0.52019781
0.50685721
0.49157915
0.47730481
0.47365573
0.47059645
0.44847442
0.4283221
0.64563613
0.70138941
0.78254613
0.8322791
0.7641655
0.6064928
0.47461654
0.45709973
0.5632937
0.74581239
0.88157841
0.97073354
0.94954449
0.78451459
0.51841385
0.26534404
0.11309187
0.045420492
0.02077619
0.012547667
0.0092570686
0.007707443
0.0068339139
0.006295032
0.005918761
0.0056222104
0.005371521
0.0051572085
0.0049815411
0.0048459779
0.0047459294
0.0046738108
0.0046222673
0.0045856781
0.0045595935
0.0045409421
0.0045282038
0.0045208437
0.0045129599
0.64280456
0.62539965
0.64009812
0.65906442
0.64823121
0.61120318
0.57583698
0.55296652
0.53742461
0.52404966
0.50952924
0.48988429
0.46929815
0.46049316
0.45713819
0.43927186
0.41987718
0.69488507
0.7744667
0.83860707
0.79763829
0.65892617
0.52585236
0.49637363
0.5977681
0.79456779
1.023235
1.1829651
1.2674347
1.1873669
0.91280665
0.54800579
0.25175644
0.098322886
0.038680747
0.018461124
0.011676402
0.0088974364
0.0075411232
0.0067495122
0.0062433741
0.0058803568
0.0055911812
0.0053466738
0.0051380256
0.0049676038
0.0048363587
0.0047395005
0.0046695963
0.0046195388
0.0045838292
0.0045572046
0.0045395576
0.004527406
0.0045203916
0.0045126253
0.69176462
0.64183475
0.62268982
0.63626604
0.6560653
0.64998852
0.61756368
0.58254313
0.55849367
0.54253192
0.52926963
0.51147163
0.48672374
0.45903171
0.44368239
0.43903082
0.42490404
0.40577459
0.76773831
0.84018497
0.82313899
0.70446189
0.57552614
0.53629539
0.62922015
0.82813896
1.0852281
1.3227386
1.4794426
1.5194116
1.340665
0.95224598
0.51689349
0.21573626
0.080421159
0.03232944
0.01653376
0.010988786
0.0086292017
0.0074229904
0.0066900696
0.0062035281
0.0058481201
0.005563938
0.0053239505
0.0051200755
0.0049543916
0.0048271555
0.0047333091
0.0046655136
0.0046167315
0.004579981
0.0045549156
0.0045382555
0.0045266408
0.00451995
0.0045122941
0.76330957
0.69215763
0.64176133
0.61840743
0.62854456
0.64957327
0.64998494
0.62316491
0.5896288
0.56521123
0.54915089
0.5330853
0.51299043
0.48218743
0.44561135
0.42250147
0.41530952
0.40403827
0.38469727
0.83760057
0.84137716
0.7419318
0.62150362
0.57552403
0.65770514
0.85152794
1.108675
1.384832
1.5752044
1.6794368
1.6471335
1.374073
0.89916605
0.44106988
0.17129651
0.063772346
0.027150316
0.015050636
0.010474633
0.0084367876
0.0073402059
0.0066478303
0.0061721486
0.0058207787
0.0055396409
0.0053029901
0.005103226
0.0049418502
0.0048183504
0.0047273512
0.0046613406
0.0046106769
0.0045763414
0.0045527916
0.004537027
0.0045259114
0.0045195194
0.0045119679
0.83274933
0.76210137
0.69555444
0.6421593
0.61201019
0.61656212
0.63866517
0.64666084
0.62694511
0.59663725
0.57271734
0.55409535
0.53764031
0.5141594
0.47509026
0.42807967
0.39606107
0.38507443
0.37549932
0.35532752
0.85131125
0.77134005
0.66199162
0.61271152
0.68321151
0.86711559
1.116635
1.3763194
1.5965028
1.6879585
1.7358061
1.6576862
1.3073177
0.77866682
0.34628151
0.12939906
0.050526679
0.023306241
0.013934392
0.0101056
0.0082978507
0.0072791619
0.0066161892
0.0061466481
0.0057970155
0.0055175912
0.0052835004
0.005087332
0.0049299103
0.0048099271
0.0047213004
0.0046520327
0.0046050151
0.0045730015
0.0045508139
0.0045358746
0.0045252168
0.0045191009
0.0045116474
0.8539776
0.82812239
0.76477327
0.70160143
0.64254234
0.6031092
0.60014546
0.62253549
0.63881927
0.62837002
0.60294988
0.57801972
0.5596799
0.5421385
0.51374677
0.46427684
0.40515745
0.36340276
0.34763934
0.3388927
0.31651121
0.79279266
0.69594154
0.64675938
0.70577499
0.87660669
1.1138933
1.3606758
1.5491035
1.6437461
1.6821128
1.7249671
1.603966
1.1659586
0.62318658
0.25570114
0.096813849
0.040834905
0.020641353
0.013126635
0.0098350281
0.0081904155
0.0072293423
0.0065894098
0.0061247398
0.0057756876
0.0054972536
0.0052651894
0.0050722324
0.0049185371
0.0048014217
0.0047072878
0.0046434159
0.0045998695
0.0045699248
0.0045489831
0.0045347934
0.0045245579
0.0045186945
0.0045113333
0.80638234
0.85179597
0.82581955
0.77118671
0.70958656
0.64257057
0.59173506
0.57960613
0.60105147
0.62597468
0.6263023
0.60531418
0.58242773
0.56507204
0.5458182
0.51039258
0.4479592
0.37522536
0.32364539
0.30313868
0.29402799
0.26765759
0.72320055
0.67689967
0.72568777
0.88154487
1.1042709
1.3353761
1.5135548
1.5806755
1.5983378
1.6587544
1.7044551
1.4942539
0.97194168
0.46502693
0.18369206
0.074425872
0.034189425
0.018873455
0.012536275
0.0096221425
0.0080995254
0.0071835391
0.0065632091
0.0061044921
0.0057559082
0.0054781114
0.0052477365
0.0050578652
0.0049070996
0.0047808491
0.0046944159
0.0046356539
0.004595176
0.0045671059
0.0045472883
0.0045337817
0.0045239334
0.0045183004
0.0045110252
0.74416117
0.8137216
0.84733207
0.82654176
0.78085755
0.71872184
0.64183868
0.57807082
0.55551517
0.57440011
0.60666922
0.61726689
0.60385909
0.58573858
0.56936253
0.54729454
0.50207844
0.42374803
0.3364526
0.2763815
0.25236376
0.24105326
0.20965124
0.70291176
0.74351962
0.88367796
1.0904658
1.3062951
1.4723499
1.5296913
1.52398
1.5645976
1.6627489
1.6668921
1.3187527
0.75435193
0.33087877
0.13418037
0.060117659
0.029900409
0.01759856
0.012074877
0.0094424963
0.0080160014
0.0071373459
0.0065347869
0.0060844272
0.0057368069
0.0054595641
0.0052310369
0.0050434262
0.0048778941
0.0047620197
0.004682906
0.0046286394
0.0045909164
0.0045645224
0.0045457236
0.0045328354
0.0045233429
0.0045179175
0.0045107208
0.72513093
0.76021615
0.81629322
0.84315488
0.83073537
0.79316384
0.72824893
0.63999721
0.5625045
0.52881415
0.54321763
0.57947505
0.60294742
0.59996942
0.58685591
0.57128467
0.54451228
0.48590477
0.38840429
0.28735434
0.22250473
0.19740722
0.18282969
0.14794011
0.75993981
0.88510349
1.0748239
1.2762031
1.4330515
1.4851161
1.4631809
1.4818783
1.5773109
1.6838158
1.5757802
1.0849034
0.54891922
0.23438738
0.10371821
0.050965874
0.02696049
0.016566535
0.011693606
0.0092822621
0.0079350109
0.0070888322
0.0065030584
0.006063055
0.0057172782
0.0054414215
0.0052141605
0.0050036933
0.004851113
0.0047452559
0.0046725924
0.0046223302
0.004587049
0.0045621605
0.0045442809
0.0045319517
0.0045227839
0.0045175401
0.0045104163
0.77562788
0.74418723
0.77290217
0.817003
0.84128952
0.83859108
0.80741321
0.73748687
0.63680642
0.54552835
0.50087283
0.50918205
0.5521391
0.58585369
0.59223292
0.58423334
0.56901498
0.53450077
0.45727284
0.33852145
0.22825112
0.16611533
0.14272663
0.12583877
0.092625314
0.88686548
1.0595404
1.2474414
1.397625
1.4478755
1.4157552
1.4119205
1.491404
1.6257918
1.6877385
1.3969768
0.82823845
0.38728167
0.17433641
0.085660857
0.044508982
0.024797782
0.015723
0.01136536
0.0091340569
0.0078547137
0.0070379391
0.0064678703
0.0060381386
0.0056970698
0.0054227585
0.0051622313
0.004967047
0.0048272568
0.0047303288
0.0046633941
0.0046166515
0.0045835456
0.0045600037
0.0045429533
0.0045311248
0.0045222413
0.0045171694
0.004510111
0.89014539
0.79055483
0.76203464
0.7841567
0.8187616
0.84330567
0.85006404
0.82283247
0.7458612
0.63187445
0.52761533
0.47266893
0.47654092
0.52217703
0.56375077
0.57893649
0.57604465
0.5599734
0.51288276
0.40999579
0.27213179
0.1650059
0.11376949
0.094554727
0.077986154
0.052289456
1.0467427
1.2223017
1.3675064
1.4181982
1.378368
1.3574008
1.4128347
1.5468156
1.6848723
1.6238286
1.1385922
0.59773843
0.28157645
0.1393401
0.073932008
0.039775759
0.023099719
0.015019156
0.011074646
0.0089943142
0.0077749463
0.0069849156
0.0064291796
0.0060104867
0.0056754152
0.0053559992
0.0051141729
0.004934239
0.0048060529
0.00471711
0.0046551857
0.0046115511
0.0045803768
0.004558038
0.0045417305
0.0045303289
0.0045217102
0.0045168044
0.0045098038
1.0382237
0.89535939
0.80692152
0.77994544
0.79573732
0.82375916
0.85011789
0.86454638
0.83874109
0.75239544
0.6247109
0.50909753
0.4384018
0.43989406
0.48734602
0.53531862
0.55832249
0.56006522
0.53964127
0.47162733
0.33833722
0.19568349
0.10734968
0.071791267
0.057806039
0.044448208
0.028276339
1.2026038
1.3442064
1.3968958
1.3507799
1.3136716
1.34957
1.4635136
1.6302875
1.7203949
1.4444973
0.8595745
0.43145298
0.21892827
0.11786124
0.065549603
0.036182661
0.021657625
0.014418709
0.010812415
0.0088613957
0.0076953471
0.0069295031
0.0063884581
0.0059798806
0.0055881188
0.0052946052
0.0050709917
0.0049049582
0.0047873433
0.0047054053
0.0046478759
0.0046069771
0.0045775164
0.0045562453
0.0045405661
0.0045295646
0.0045211885
0.0045164435
0.0045094938
1.1890108
1.0345013
0.9051476
0.82573416
0.7992985
0.80930821
0.83320026
0.86161235
0.88149719
0.85361582
0.7556915
0.61495584
0.47536722
0.39832185
0.39861182
0.44710734
0.49948067
0.52836845
0.53214601
0.49933443
0.39998154
0.24718749
0.12366701
0.063682162
0.043047242
0.033769549
0.024713037
0.015871136
1.3275928
1.3836394
1.3323601
1.2796512
1.2965387
1.3927792
1.5519097
1.7181533
1.6838094
1.168476
0.63080439
0.32851257
0.18135207
0.10362258
0.059039197
0.033374912
0.020413988
0.013898732
0.01057304
0.0087334533
0.0076146846
0.0068732101
0.0063453197
0.0058618893
0.005509214
0.0052398041
0.0050321989
0.0048790616
0.0047708647
0.0046950664
0.0046413756
0.0046028837
0.004574934
0.0045545508
0.0045394612
0.0045288292
0.0045206742
0.0045160852
0.0045091797
1.3156774
1.1813899
1.0370018
0.91983496
0.84770178
0.82110492
0.82616217
0.84735252
0.8771442
0.89796077
0.86791077
0.75278754
0.58489858
0.43348808
0.352584
0.35282675
0.40146509
0.45519786
0.48626682
0.48445311
0.4278638
0.29992221
0.15594303
0.069376631
0.036437249
0.025893449
0.019851522
0.014362757
0.0098525427
1.3749378
1.3212525
1.2533103
1.2525353
1.3314268
1.4779054
1.6621638
1.7818362
1.5189935
0.88719913
0.47658591
0.26760179
0.1578445
0.093491381
0.053789508
0.031110215
0.019366962
0.013442925
0.010351437
0.0086077572
0.007534275
0.0068147225
0.0061800707
0.0057580798
0.0054400326
0.005190568
0.0049976454
0.0048562537
0.0047564041
0.0046859474
0.0046356083
0.004599221
0.0045725112
0.0045529638
0.0045384107
0.0045281195
0.0045201652
0.0045157276
0.0045088603
1.3653249
1.3071072
1.178547
1.0455334
0.93936072
0.8730856
0.84575467
0.84679819
0.8656093
0.89515719
0.91767297
0.87273801
0.73159834
0.54471654
0.38292973
0.30172244
0.30352959
0.35070212
0.40141776
0.42777787
0.40977559
0.32613608
0.19260981
0.085050635
0.036947315
0.021984267
0.016194037
0.012304038
0.009262716
0.0071645184
1.311872
1.2316496
1.21561
1.2788985
1.4116463
1.592811
1.7733416
1.7758003
1.2447339
0.67214888
0.38344242
0.2312833
0.14225227
0.085881821
0.049593599
0.02918351
0.018480079
0.013037325
0.010141523
0.0084854667
0.0074515172
0.0065746484
0.0060391688
0.0056686069
0.0053785477
0.0051465508
0.0049670212
0.0048362839
0.0047437425
0.0046779257
0.0046304944
0.0045958076
0.0045702647
0.0045514762
0.0045374097
0.0045274329
0.004519659
0.0045153688
0.0045085345
1.2973103
1.3508008
1.2969947
1.1796125
1.0591602
0.96307329
0.90150626
0.87329776
0.87075336
0.88725068
0.91654141
0.93316385
0.86656692
0.69994467
0.49141466
0.3239463
0.24749124
0.25236113
0.29545344
0.33723052
0.34990034
0.31005136
0.21282255
0.10487479
0.042523524
0.021243429
0.014217475
0.010717759
0.0084836919
0.0069534428
0.0059411428
1.2106118
1.1829216
1.2336618
1.3544173
1.5262677
1.7230125
1.8591186
1.6237264
0.97052768
0.53723949
0.32942523
0.20915554
0.13121508
0.079918051
0.046213765
0.027506329
0.01771869
0.012667474
0.009943359
0.008361276
0.007085153
0.0063792785
0.0059204747
0.0055901781
0.0053238983
0.0051072986
0.0049400817
0.0048188759
0.0047326977
0.0046708773
0.0046257592
0.0045926737
0.0045681812
0.0045500797
0.004536454
0.0045267658
0.0045191539
0.0045150076
0.0045082006
1.1849932
1.2719065