/*--------------------------------*- C++ -*----------------------------------*\
  =========                 |
  \\      /  F ield         | OpenFOAM: The Open Source CFD Toolbox
   \\    /   O peration     | Website:  https://openfoam.org
    \\  /    A nd           | Version:  8
     \\/     M anipulation  |
\*---------------------------------------------------------------------------*/
FoamFile
{
    version     2.0;
    format      ascii;
    class       volScalarField;
    location    "399.966377299886858";
    object      omega;
}
// * * * * * * * * * * * * * * * * * * * * * * * * * * * * * * * * * * * * * //

dimensions      [0 0 -1 0 0 0 0];

internalField   nonuniform List<scalar> 
9200
(
0.0044990849
0.0045085414
0.0045000041
0.0045207332
0.0045091517
0.0044990361
0.0045396274
0.0045209895
0.0045079398
0.0044985492
0.0045671597
0.0045396249
0.0045196719
0.0045072277
0.0044976816
0.0046081502
0.0045669155
0.0045382366
0.0045188146
0.0045060577
0.0044968836
0.0046705667
0.0046076079
0.004565689
0.0045372182
0.004517405
0.0045049458
0.0044961666
0.0047694715
0.0046693442
0.0046067562
0.0045646634
0.0045354281
0.0045160048
0.0045039345
0.0044957214
0.004936173
0.004766734
0.0046690622
0.0046059276
0.0045624581
0.004533513
0.0045147143
0.0045032642
0.0044956225
0.0052338894
0.0049287154
0.0047671436
0.0046686994
0.004603285
0.00455979
0.0045316899
0.0045138397
0.0045030311
0.0044958927
0.0057572929
0.0052151721
0.004929591
0.004767801
0.0046655138
0.0045994824
0.0045570941
0.0045304037
0.0045135072
0.0045032571
0.0044964919
0.0067050828
0.0057214057
0.0052172185
0.0049321819
0.0047638242
0.0046598699
0.0045953169
0.0045551079
0.004529841
0.0045137389
0.0045038797
0.004497334
0.0085854266
0.0066387794
0.005727594
0.0052217809
0.0049268648
0.0047548745
0.004653141
0.004592117
0.0045541369
0.004530034
0.0045144458
0.0045047811
0.00449831
0.012382504
0.00843198
0.0066582338
0.0057337624
0.0052125909
0.0049116779
0.0047434404
0.0046477805
0.0045904258
0.0045542373
0.0045308445
0.0045154589
0.0045058218
0.0044993127
0.019848849
0.0121616
0.008484348
0.006672502
0.0057145894
0.0051847088
0.0048911438
0.0047338085
0.0046447992
0.0045903108
0.0045551896
0.0045320154
0.0045165866
0.0045068711
0.0045002532
0.034043792
0.019940015
0.012409791
0.0085260347
0.0066265712
0.0056616676
0.0051454978
0.0048721603
0.0047280672
0.0046441705
0.004591402
0.0045565849
0.004533264
0.0045176615
0.0045078281
0.004501071
0.0600475
0.035548604
0.021063898
0.012601046
0.0084058946
0.0065067466
0.0055878775
0.0051063498
0.0048591224
0.0047259037
0.0046452492
0.0045930415
0.0045579902
0.0045343593
0.004518567
0.0045086316
0.0045017373
0.10160435
0.065519485
0.039498505
0.021910261
0.012284503
0.0080949641
0.0063478976
0.0055124369
0.005076042
0.0048523338
0.0047261425
0.0046469584
0.0045945583
0.0045590719
0.0045351591
0.0045192452
0.0045092601
0.0045022533
0.15624315
0.11461886
0.075622831
0.042469554
0.021202234
0.011389831
0.0077019659
0.0061938191
0.0054500008
0.0050574415
0.0048494057
0.0047270347
0.0046482459
0.004595458
0.0045596485
0.0045356141
0.0045196931
0.0045097263
0.0045026456
0.21512274
0.17894807
0.13443403
0.082993017
0.040980879
0.018747142
0.010293098
0.0073463258
0.0060716972
0.0054064945
0.0050470586
0.004847944
0.004727253
0.0046484962
0.0045955359
0.0045596919
0.0045357552
0.0045199498
0.0045100669
0.0045029543
0.26837492
0.24616483
0.20952568
0.14798829
0.080000901
0.03457384
0.015688208
0.0093743937
0.0070871487
0.0059866903
0.00537931
0.0050406488
0.0048460323
0.0047260645
0.0046474969
0.0045948232
0.0045592922
0.004535669
0.0045200806
0.0045103317
0.0045032235
0.31120968
0.30336185
0.28462946
0.22881208
0.14246287
0.065941114
0.026563109
0.013177005
0.0087760075
0.006919855
0.0059305071
0.0053605568
0.0050341067
0.0048421461
0.0047230852
0.0046453613
0.0045935207
0.0045586141
0.0045354698
0.0045201612
0.0045105743
0.004503497
0.34386429
0.34616865
0.34439488
0.30760584
0.22039229
0.11717579
0.04786758
0.020322665
0.011663813
0.0084254126
0.0068119937
0.0058906447
0.0053429378
0.0050245389
0.0048357751
0.0047185932
0.0046424819
0.0045919136
0.0045578525
0.0045352747
0.0045202648
0.0045108451
0.0045038135
0.36830781
0.37619011
0.38628581
0.36910675
0.29784237
0.18389384
0.083747184
0.033332777
0.016644032
0.010872214
0.0082307223
0.0067424968
0.0058556068
0.0053219111
0.0050116026
0.0048276183
0.0047132936
0.004639357
0.0045903053
0.0045571909
0.0045351854
0.0045204526
0.0045111859
0.0045042037
0.38652696
0.39678322
0.41328621
0.41071263
0.36197822
0.25468353
0.1336424
0.05589493
0.024884356
0.014821953
0.010513057
0.0081261526
0.0066898773
0.0058168294
0.0052966764
0.0049968287
0.0048188918
0.0047079937
0.0046364627
0.0045889667
0.0045567752
0.0045352781
0.0045207688
0.0045116273
0.0045046879
0.40003964
0.41078276
0.43019719
0.43831313
0.4087657
0.31907897
0.19173944
0.089621197
0.039052672
0.021100611
0.014145205
0.010381188
0.0080654305
0.0066343402
0.0057716309
0.0052697032
0.0049823487
0.0048108261
0.0047034311
0.0046342058
0.0045881131
0.0045567028
0.0045355986
0.0045212392
0.0045121871
0.0045052753
0.41005388
0.42012312
0.43997483
0.455683
0.44165838
0.37239691
0.25114874
0.13360888
0.062520298
0.032188508
0.020260538
0.014104935
0.01034918
0.0079961188
0.0065659175
0.005723292
0.0052446002
0.0049700614
0.0048044411
0.0047002183
0.0046328929
0.0045878774
0.0045570213
0.0045361628
0.0045218714
0.0045128705
0.0045059648
0.41748729
0.42623543
0.44485108
0.46551663
0.46475616
0.41527539
0.30735869
0.18496432
0.098435187
0.053009394
0.032376888
0.021233656
0.014410094
0.010281915
0.0078871828
0.0064865651
0.00567796
0.0052244922
0.004961273
0.0048004712
0.0046987516
0.0046326892
0.0045883045
0.0045577324
0.0045369608
0.0045226581
0.0045136708
0.0045067455
0.4230066
0.43020474
0.44654561
0.4699302
0.47999696
0.44945645
0.35850309
0.23956927
0.14691726
0.091012313
0.058409983
0.037321927
0.023373081
0.014706005
0.010086433
0.0077391311
0.0064057809
0.0056415209
0.0052111805
0.0049566163
0.0047993188
0.0046991426
0.0046335944
0.0045893587
0.0045587971
0.004537964
0.0045235771
0.0045145704
0.0045075984
0.42707538
0.43279509
0.44639377
0.47069428
0.48876622
0.475354
0.40353572
0.29353423
0.20333842
0.1482897
0.110093
0.075257093
0.04570927
0.025597107
0.014587398
0.0097519279
0.0075769651
0.0063339314
0.0056172087
0.0052049224
0.0049562018
0.0048008842
0.0047011877
0.004635456
0.0045909328
0.0045601465
0.0045391282
0.0045245932
0.0045155425
0.0045084993
0.43019757
0.43449556
0.44530945
0.46932168
0.49274798
0.49368106
0.44154713
0.34374363
0.26138332
0.21646359
0.188102
0.15012897
0.10024034
0.054385913
0.026288237
0.013869048
0.009346359
0.007428767
0.0062793186
0.0056048931
0.0052050159
0.0049594471
0.0048046746
0.004704554
0.0046380518
0.0045929038
0.004561695
0.0045403944
0.00452567
0.0045165584
0.004509421
0.43232892
0.43564995
0.44390413
0.46685213
0.49347803
0.50582282
0.4724067
0.38839055
0.31547046
0.28512197
0.27821295
0.25726169
0.20186023
0.12426218
0.057748259
0.024621384
0.012748574
0.0089658633
0.0073060327
0.0062446573
0.0056021513
0.0052098402
0.0049655158
0.0048100934
0.0047088234
0.0046411228
0.0045951171
0.0045633459
0.0045416993
0.0045267723
0.0045175871
0.0045103358
0.43341201
0.43641076
0.4425663
0.46401256
0.49220117
0.51316748
0.49667452
0.42689217
0.36288852
0.34563291
0.36265669
0.37384448
0.33877949
0.24699372
0.13287648
0.053062581
0.021246185
0.011618947
0.0086695878
0.0072067722
0.0062250024
0.0056053885
0.0052179554
0.0049734403
0.0048164577
0.0047135111
0.0046443952
0.0045974113
0.0045650043
0.004542991
0.004527859
0.0045185972
0.0045112173
0.43347431
0.43682429
0.44097008
0.46135869
0.48984451
0.51711991
0.51520978
0.45935815
0.40306393
0.39530246
0.42983186
0.47263636
0.47612588
0.40270377
0.26106701
0.12061448
0.042861917
0.017612633
0.010752214
0.0084550885
0.0071310717
0.006213304
0.0056120069
0.0052277599
0.0049821117
0.0048230428
0.0047181754
0.0046476107
0.0045996364
0.0045665945
0.0045442227
0.0045288955
0.0045195604
0.0045120425
0.4325857
0.43694161
0.43982503
0.45817877
0.48683367
0.51872377
0.52911173
0.48626285
0.43646694
0.43457604
0.47911129
0.54078572
0.57951706
0.54691414
0.4190676
0.23685181
0.093927389
0.0320952
0.014801303
0.010199863
0.00828139
0.0070711418
0.0062048875
0.0056193476
0.0052374786
0.0049903885
0.0048291677
0.004722442
0.0046505389
0.004601664
0.0045680466
0.004545352
0.0045298536
0.0045204528
0.0045127927
0.43084624
0.43679129
0.43928993
0.45584657
0.48271498
0.51777754
0.53972497
0.50822605
0.46397014
0.46506193
0.5134821
0.58293975
0.63833262
0.64568997
0.56154769
0.38327838
0.18568132
0.064799698
0.023893081
0.013078346
0.0098573643
0.0081429653
0.0070191706
0.0061954596
0.005624679
0.0052454097
0.0049972696
0.0048342811
0.0047260105
0.0046529997
0.0046033948
0.0045693069
0.0045463498
0.0045307092
0.0045212551
0.0045134542
0.42840149
0.43640589
0.43951834
0.4545198
0.47908096
0.51442044
0.5463895
0.52639327
0.48647818
0.48854046
0.53691148
0.60625407
0.66681417
0.69451386
0.65825073
0.52155353
0.30900612
0.12787938
0.042939479
0.018813371
0.012124008
0.0095897313
0.008028483
0.0069680914
0.0061810769
0.0056256238
0.0052501835
0.0050020149
0.0048379943
0.0047286754
0.0046548962
0.0046047661
0.0045703393
0.0045471923
0.0045314458
0.0045219541
0.0045140184
0.42545239
0.43583642
0.44059585
0.45443743
0.47622181
0.51049039
0.54877154
0.54260633
0.50474173
0.50639331
0.55260085
0.61829395
0.67612136
0.7107144
0.70798715
0.62406853
0.43741656
0.21997734
0.080609254
0.030204337
0.015994873
0.011578992
0.0093603312
0.0079246771
0.0069119811
0.0061587718
0.0056204933
0.0052509114
0.005004182
0.0048400869
0.0047303352
0.0046561691
0.0046057401
0.0045711209
0.0045478638
0.0045320529
0.0045225416
0.0045144817
0.4222475
0.43517158
0.44256709
0.45571128
0.47438494
0.50641573
0.54881646
0.55474372
0.52053068
0.52019195
0.56251168
0.62323146
0.67636375
0.71101802
0.7256011
0.68649892
0.54676208
0.3276586
0.14109772
0.050883636
0.023173102
0.014511478
0.011204694
0.0091639774
0.0078210899
0.0068467363
0.0061269068
0.0056084505
0.0052472188
0.0050036151
0.004840501
0.004730984
0.0046568006
0.0046063102
0.0045716436
0.0045483583
0.0045325266
0.004523015
0.0045148447
0.41909023
0.43454914
0.44544538
0.45837038
0.47370813
0.50248087
0.54703923
0.56316912
0.53474566
0.52916898
0.56925914
0.62367569
0.67157954
0.70413903
0.72659443
0.71820537
0.62747536
0.43317104
0.21974716
0.086171693
0.035370156
0.019385818
0.01371862
0.010868809
0.0089823281
0.0077100413
0.0067702165
0.0060852485
0.0055895127
0.0052392019
0.0050004073
0.0048393112
0.0047306497
0.0046568102
0.0046064863
0.0045719124
0.004548677
0.0045328677
0.0045233756
0.0045151115
0.43416002
0.41631224
0.44923764
0.46234959
0.47420746
0.49899121
0.54375518
0.56831021
0.54672754
0.53727159
0.57096881
0.6227386
0.66466557
0.69410917
0.71996279
0.73085127
0.68088458
0.5243388
0.30694645
0.1365638
0.054591086
0.027414263
0.017449362
0.013226758
0.010569838
0.0088015269
0.0075857949
0.0066822454
0.0060348233
0.0055644234
0.0052273286
0.0049948333
0.0048366877
0.0047293978
0.0046562422
0.0046062936
0.0045719379
0.0045488264
0.0045330809
0.0045236285
0.004515289
0.45396389
0.43428709
0.4143783
0.46749155
0.47577938
0.4960698
0.53945385
0.5704715
0.5559436
0.54409604
0.57158325
0.61895836
0.65721298
0.68291629
0.70978264
0.73266727
0.71327508
0.59653166
0.39254248
0.19790802
0.083358123
0.039335161
0.023296775
0.016458244
0.012802332
0.010288223
0.0086124622
0.0074445026
0.0065844893
0.0059775907
0.0055344327
0.0052123024
0.004987282
0.0048327954
0.0047273285
0.0046551564
0.0046057667
0.0045717385
0.0045488182
0.0045331744
0.0045237818
0.0045153858
0.47355535
0.45971469
0.43531221
0.41330982
0.47822156
0.49378362
0.53437414
0.57004295
0.56223626
0.54949022
0.57106364
0.61281865
0.6497483
0.67164891
0.69835945
0.72835235
0.7314533
0.65063768
0.46965152
0.2647444
0.1217816
0.055969423
0.032074123
0.02124843
0.015873296
0.012392113
0.010005939
0.0084101127
0.0072878792
0.0064800509
0.0059160219
0.0055010415
0.0051949264
0.00497815
0.0048278266
0.0047245601
0.0046536208
0.0046049443
0.0045713385
0.0045486671
0.0045331589
0.0045238451
0.0045154116
0.48134828
0.48018829
0.4665862
0.43682213
0.41319457
0.49178397
0.52962797
0.56706232
0.56570607
0.55334787
0.56983417
0.60634959
0.6392222
0.66205238
0.68708185
0.72096665
0.74030546
0.69020762
0.53559622
0.33172328
0.1672966
0.078388903
0.044197588
0.028604575
0.020240879
0.015407784
0.011992132
0.0097122492
0.0081929411
0.0071212082
0.0063728296
0.0058526889
0.0054657653
0.0051759661
0.0049677905
0.0048219917
0.0047212163
0.0046517067
0.0046038682
0.004570763
0.0045483894
0.004533047
0.0045238295
0.0045153764
0.49058992
0.48485113
0.48681319
0.47287029
0.43885212
0.41405581
0.5223
0.56270087
0.56645733
0.55560733
0.56818927
0.60006813
0.63052629
0.6501608
0.67644606
0.7124141
0.74352913
0.71867102
0.59069463
0.39513406
0.21683641
0.1071215
0.060094703
0.039600574
0.027126683
0.019671047
0.014941588
0.011583463
0.0094036001
0.0079623173
0.0069514195
0.0062668377
0.0057898069
0.0054298606
0.005156058
0.0049565492
0.0048154972
0.0047174169
0.0046494836
0.0046025802
0.0045700381
0.0045480026
0.0045328518
0.0045237459
0.0045152906
0.51561013
0.49031438
0.48833393
0.49284381
0.4787653
0.44137779
0.41587147
0.55560921
0.56474788
0.55637004
0.56625941
0.59450576
0.62294799
0.64060114
0.6631743
0.70213821
0.74397506
0.73939309
0.63629553
0.453264
0.26819184
0.14140155
0.080169137
0.054842256
0.03850829
0.02668945
0.019241115
0.014446955
0.011157732
0.0090827796
0.0077221618
0.0067851118
0.0061650754
0.0057290364
0.0053943531
0.0051357408
0.0049447423
0.0048085316
0.0047132716
0.0046470167
0.00460112
0.0045691894
0.0045475242
0.0045325866
0.0045236052
0.0045151631
0.54729811
0.51032875
0.49061024
0.49139965
0.49781105
0.48381162
0.44435448
0.41852434
0.56104996
0.55581747
0.56420127
0.58993587
0.61739086
0.63307354
0.65166999
0.68751674
0.73863848
0.75774559
0.67454723
0.50543692
0.31963139
0.1804547
0.10543373
0.074594406
0.056072362
0.039464612
0.026752501
0.018828568
0.013920489
0.010719249
0.0087554895
0.0074764003
0.0066273778
0.0060699325
0.0056716662
0.005360017
0.0051154475
0.0049326387
0.0048012578
0.0047088789
0.0046443652
0.0045995246
0.0045682413
0.0045469712
0.004532264
0.0045234183
0.0045150029
0.55589324
0.53901334
0.50634726
0.4911768
0.49370409
0.50130818
0.48800159
0.44765839
0.42179246
0.55424817
0.56222613
0.5865906
0.61407762
0.62835777
0.64217312
0.67350158
0.72670362
0.76846422
0.71199005
0.55266052
0.36976036
0.22369245
0.13779296
0.1004718
0.080454544
0.061374998
0.041753182
0.027050437
0.018397553
0.013372844
0.010271639
0.0084242248
0.0072389965
0.00648254
0.0059830949
0.0056185548
0.0053273783
0.0050954973
0.0049204543
0.0047938119
0.0047043244
0.0046415817
0.0045978273
0.004567216
0.0045463595
0.004531896
0.0045231949
0.0045148178
0.55204702
0.54997453
0.53158181
0.50346824
0.49180995
0.49503167
0.50319257
0.49127172
0.45103736
0.42537097
0.56060069
0.58469526
0.6131219
0.62673231
0.63522394
0.66075088
0.71292766
0.76862533
0.75171406
0.59828997
0.41816077
0.26995818
0.17914321
0.13734197
0.11561266
0.094336426
0.069902332
0.044974104
0.02748708
0.017962287
0.012793391
0.0098139195
0.0080974213
0.007021375
0.0063534349
0.0059054512
0.0055702017
0.0052966583
0.0050761023
0.0049083569
0.0047863074
0.0046996795
0.0046387113
0.0045960577
0.0045661337
0.0045457032
0.0045314933
0.0045229438
0.0045146147
0.55963837
0.54966363
0.54403151
0.52540439
0.5016421
0.49237333
0.49521258
0.5032746
0.49320538
0.45417284
0.42888325
0.58449541
0.61452461
0.62813577
0.6310667
0.64974831
0.69865259
0.76281212
0.77799762
0.65864145
0.46521453
0.31802252
0.2292642
0.19017234
0.17168742
0.14756643
0.11584874
0.081263539
0.048938943
0.028050068
0.017421544
0.012165309
0.009357613
0.0077872337
0.0068300131
0.0062413747
0.005837282
0.0055266755
0.0052677857
0.0050574066
0.0048964774
0.0047788362
0.004695002
0.0046357921
0.004594241
0.0045650117
0.0045450147
0.0045310657
0.0045226732
0.0045143991
0.58617605
0.55966515
0.5475733
0.53876279
0.52076566
0.50083842
0.4927628
0.4940992
0.50128269
0.49341103
0.45660872
0.43164558
0.61826023
0.63220532
0.62962579
0.64106176
0.68454663
0.75347651
0.79283895
0.71233644
0.52729285
0.36569859
0.28505488
0.25775923
0.25517674
0.24053311
0.19911442
0.14562763
0.095230114
0.053433326
0.028222824
0.016668825
0.011501688
0.00892101
0.0075069952
0.0066679021
0.0061463166
0.0057785505
0.0054871769
0.0052407606
0.0050395191
0.0048849129
0.0047714666
0.0046903386
0.0046328555
0.0045923987
0.004563865
0.0045443058
0.0045306226
0.0045223898
0.0045141735
0.62409895
0.58992787
0.56099943
0.54616357
0.53478492
0.51786011
0.50102492
0.49293703
0.49164262
0.49704301
0.49142095
0.45758062
0.43359388
0.63823715
0.63041645
0.63472269
0.67191255
0.7412797
0.80001871
0.75558219
0.59016066
0.4180966
0.33961495
0.33356955
0.35918314
0.37553616
0.34880178
0.27375142
0.1845843
0.11109135
0.056513959
0.027484729
0.015698756
0.010837645
0.0085239398
0.0072692882
0.0065349701
0.0060672734
0.0057279878
0.0054513736
0.0052154968
0.005022505
0.004873726
0.0047642466
0.0046857252
0.0046299266
0.0045905485
0.0045627078
0.0045435879
0.004530171
0.0045220892
0.0045138562
0.64510196
0.63172304
0.59544779
0.56354237
0.54581036
0.53253942
0.51678362
0.50216274
0.49286567
0.48785597
0.49053028
0.48680884
0.45690508
0.43425622
0.6325435
0.63044137
0.66145185
0.72853771
0.79990181
0.7890673
0.64918981
0.47473242
0.38035012
0.4059001
0.46707381
0.52961268
0.54962917
0.49547096
0.37093771
0.23136837
0.12318838
0.056223368
0.02573855
0.014599153
0.010215669
0.0081826259
0.0070789736
0.0064289605
0.0060028653
0.005683888
0.0054187626
0.005192103
0.0050063755
0.0048629494
0.0047572109
0.0046811894
0.0046270262
0.0045887077
0.0045615544
0.0045428687
0.0045296977
0.004521631
0.0045135268
0.63482648
0.65124364
0.63976839
0.60171513
0.56725089
0.54683698
0.53227524
0.51754412
0.50415036
0.49245532
0.48282127
0.48195438
0.47974845
0.45415741
0.4328765
0.62767275
0.65354304
0.71686362
0.79515538
0.81265695
0.70167677
0.53274948
0.4250432
0.44118357
0.56408632
0.67498584
0.76040107
0.77025948
0.6691
0.47685871
0.26873302
0.12551114
0.052241133
0.023307324
0.013495459
0.0096715328
0.007905739
0.0069326743
0.0063465315
0.0059503761
0.0056453918
0.0053892348
0.0051704629
0.0049911048
0.0048525989
0.0047503843
0.0046767528
0.0046241739
0.0045868934
0.0045604127
0.0045421172
0.004528863
0.0045211685
0.0045131956
0.6257433
0.63606791
0.65513186
0.64612261
0.60805151
0.57210409
0.54945621
0.53403253
0.52004261
0.50676244
0.49153413
0.4768038
0.47187633
0.46969051
0.44847523
0.42843916
0.64825912
0.70736949
0.7883233
0.82748902
0.74609832
0.58902047
0.47274155
0.47717624
0.60264351
0.79727448
0.94237852
1.0398834
1.0200396
0.84211248
0.55280725
0.27907073
0.11616316
0.045765376
0.020693572
0.012482457
0.0092256448
0.0076932041
0.006824505
0.0062838458
0.0059071439
0.0056116622
0.0053627234
0.0051503825
0.0049766524
0.004842682
0.0047437839
0.004672435
0.0046213881
0.0045851131
0.0045592266
0.0045407011
0.0045280368
0.0045207146
0.0045128649
0.64548953
0.62395654
0.63527022
0.65557852
0.64936978
0.61428841
0.57805201
0.55370346
0.53771641
0.52391265
0.50967747
0.49024091
0.46923753
0.45890642
0.4558535
0.43878849
0.41972013
0.70080213
0.78101435
0.83659857
0.78151946
0.64089844
0.52150436
0.51410882
0.63585452
0.84645754
1.080086
1.2454538
1.3322338
1.2473177
0.95561984
0.56943126
0.25823118
0.099074889
0.038508589
0.018317902
0.011622087
0.0088809312
0.0075378858
0.0067476007
0.0062365698
0.0058713843
0.0055822311
0.0053387507
0.0051316814
0.004962976
0.0048331985
0.0047374216
0.0046682521
0.0046186752
0.0045832738
0.004556854
0.0045393267
0.0045272466
0.0045202695
0.0045125373
0.69758213
0.64485801
0.62153495
0.63138489
0.65208267
0.65027309
0.62026448
0.58481152
0.55936487
0.54287567
0.52920255
0.51179098
0.48756866
0.45950307
0.44235522
0.43738995
0.42389929
0.40528423
0.77447776
0.84040684
0.80873506
0.68645489
0.56901473
0.55118197
0.66487802
0.87739224
1.1402585
1.3715827
1.5232346
1.557834
1.3731532
0.97338403
0.52457158
0.2163259
0.079791619
0.031933376
0.016394123
0.010954081
0.0086269509
0.0074287214
0.0066941802
0.0062004115
0.0058415372
0.0055564172
0.0053168488
0.0051142044
0.0049500294
0.0048241371
0.0047313024
0.0046642062
0.004615889
0.0045794564
0.0045545827
0.0045380359
0.0045264901
0.0045198361
0.0045122139
0.76975015
0.69793015
0.64544887
0.61781808
0.62376676
0.64490047
0.64917128
0.62524219
0.59177285
0.56612282
0.54947576
0.53310639
0.51362912
0.48363452
0.44668455
0.42148731
0.41335812
0.40250409
0.38381233
0.8390453
0.8286336
0.72434079
0.61325247
0.58732515
0.69012755
0.89704602
1.1570885
1.4244101
1.5925183
1.6819482
1.6490962
1.3805787
0.90133775
0.43855066
0.16874499
0.062630322
0.026734849
0.014946524
0.010461708
0.0084461894
0.0073516314
0.0066561004
0.0061720968
0.0058162469
0.0055333806
0.0052966517
0.0050978125
0.0049377512
0.0048154755
0.0047254212
0.0046600768
0.0046098909
0.004575848
0.004552477
0.0045368198
0.0045257706
0.0045194145
0.0045118961
0.83454101
0.76792583
0.70145999
0.64682639
0.61229389
0.61199575
0.63313334
0.64448273
0.62814851
0.59846081
0.57355065
0.55441612
0.53778627
0.51518931
0.47724152
0.42981488
0.39540052
0.38287247
0.37345419
0.35404176
0.84040635
0.75433936
0.65251847
0.62144166
0.71190475
0.9084119
1.1593718
1.4062324
1.5961536
1.6656748
1.7096275
1.6409749
1.2963406
0.76770586
0.33834446
0.12592671
0.049390131
0.022972319
0.013873005
0.010110434
0.0083137269
0.0072933812
0.0066264446
0.0061490173
0.005794177
0.0055124356
0.0052778669
0.005082354
0.0049260665
0.0048071969
0.0047194549
0.004650868
0.0046042838
0.0045725386
0.0045505184
0.0045356808
0.0045250868
0.0045190058
0.0045115845
0.84466122
0.82958642
0.76989733
0.70783524
0.6484421
0.6045836
0.59603773
0.61617957
0.63509581
0.62843967
0.60423674
0.57865542
0.55988632
0.54240908
0.51529019
0.4672298
0.40757973
0.36309633
0.34525031
0.33635482
0.31491029
0.77655678
0.68575012
0.65266405
0.73054337
0.91355019
1.1514532
1.3854196
1.5454124
1.6102252
1.6459807
1.694113
1.579195
1.1428983
0.60507187
0.24651132
0.093734464
0.03989723
0.020425559
0.013100172
0.0098490771
0.0082089781
0.0072442158
0.0066000428
0.0061288557
0.0057742047
0.0054930619
0.0052601985
0.0050676608
0.0049149411
0.0047988437
0.0047056049
0.0046423442
0.0045991895
0.0045694924
0.0045487072
0.0045346138
0.0045244392
0.0045186098
0.0045112793
0.7911906
0.84357086
0.82642575
0.77559535
0.7163581
0.64985658
0.59467437
0.57623059
0.59403883
0.62054778
0.62490958
0.60585778
0.582691
0.5651225
0.54622495
0.51256909
0.45179597
0.37830415
0.32362485
0.30058956
0.29109049
0.26591116
0.7127431
0.6804292
0.74663272
0.91421489
1.1372837
1.3560542
1.5073294
1.547867
1.5610559
1.6279065
1.6751058
1.4621338
0.9410099
0.44536176
0.17589186
0.072191283
0.033555254
0.018744502
0.012527616
0.0096400995
0.0081183925
0.0071977213
0.0065731132
0.0061096728
0.0057554732
0.0054747448
0.0052433159
0.0050536734
0.0049037548
0.0047785119
0.0046928828
0.0046346669
0.0045945452
0.0045667037
0.0045470324
0.0045336167
0.0045238266
0.0045182262
0.0045109801
0.73388027
0.799819
0.83954629
0.82598329
0.78463338
0.72624845
0.65067854
0.58268651
0.55314896
0.56701349
0.59953077
0.61411176
0.60336726
0.58553268
0.5691884
0.54788961
0.50502074
0.42850722
0.34005499
0.27648553
0.24968041
0.2380071
0.20808849
0.70463394
0.76098457
0.91252322
1.1195507
1.3241903
1.4658745
1.4966439
1.4885172
1.5384135
1.6391014
1.6355388
1.2782878
0.72074772
0.31409091
0.12871309
0.058669135
0.029473104
0.017510712
0.012074987
0.0094615088
0.0080339844
0.0071502128
0.0065434201
0.006089972
0.0057371189
0.0054568633
0.0052271215
0.0050396073
0.0048748523
0.0047599047
0.0046815077
0.0046277315
0.0045903329
0.0045641501
0.004545488
0.0045326853
0.004523248
0.0045178539
0.0045106844
0.7256657
0.7504332
0.80386078
0.83536036
0.82889663
0.79647432
0.73674122
0.65053946
0.56892659
0.52771822
0.53596098
0.57109729
0.59828206
0.598324
0.58601809
0.57080719
0.54535534
0.48973692
0.39404109
0.2911856
0.22248753
0.19474087
0.18009482
0.14684942
0.7744096
0.91045713
1.1006088
1.2923821
1.4274065
1.4536553
1.4287276
1.4585109
1.5613012
1.6621802
1.5360339
1.038516
0.51866575
0.22249546
0.10039269
0.049904535
0.026648261
0.016500948
0.011698254
0.0093010712
0.0079517336
0.0071003124
0.006510368
0.0060680402
0.0057180297
0.0054392447
0.0052107207
0.0050001579
0.0048483576
0.0047433421
0.0046713178
0.0046214961
0.004586511
0.0045618175
0.0045440655
0.0045318165
0.0045227009
0.004517487
0.0045103884
0.78773649
0.74400914
0.76403742
0.80606978
0.83325683
0.83551715
0.81049677
0.747134
0.64912491
0.55375207
0.50120287
0.50256901
0.54302085
0.57971244
0.5892708
0.5825702
0.568189
0.53566178
0.46217146
0.34475488
0.23180506
0.16580361
0.14034401
0.12379135
0.092054213
0.90880951
1.0826642
1.2627412
1.3935355
1.4183449
1.3820019
1.3895178
1.4797287
1.6148209
1.6602521
1.3453801
0.78263273
0.36484384
0.16704815
0.083479743
0.043680422
0.024559433
0.015673415
0.0113727
0.0091522386
0.0078702194
0.0070482458
0.0064740634
0.0060421776
0.0056980175
0.0054210286
0.0051589074
0.0049637954
0.0048247691
0.0047285989
0.004662233
0.004615887
0.0045830515
0.0045596894
0.0045427577
0.0045310043
0.00452217
0.0045171264
0.004510091
0.90924819
0.80076673
0.76163785
0.77643972
0.80918174
0.83497102
0.84593692
0.82595472
0.75682983
0.64593501
0.53751221
0.47444856
0.46990019
0.51221474
0.55608772
0.57452049
0.5733601
0.55883541
0.51471933
0.41589563
0.27832909
0.16773103
0.11320404
0.092734423
0.076748605
0.052071299
1.0679036
1.2374335
1.3655422
1.3911284
1.3449442
1.3349716
1.4025951
1.5427741
1.6724295
1.5815784
1.0803842
0.56083493
0.26740585
0.13466921
0.072329016
0.039118018
0.022910842
0.014981824
0.011083901
0.0090118048
0.0077894038
0.0069942995
0.0064345049
0.0060137129
0.0056763659
0.0053540775
0.0051109937
0.0049312744
0.0048038149
0.0047155477
0.0046541294
0.0046108522
0.0045799244
0.0045577515
0.0045415542
0.0045302228
0.0045216501
0.0045167709
0.0045097912
1.0579245
0.91234832
0.81584392
0.77971614
0.78922276
0.81529572
0.8415057
0.85961693
0.84218834
0.76480865
0.64032625
0.52049241
0.44051418
0.43299404
0.4765544
0.52618647
0.55238058
0.55622003
0.53830392
0.47453538
0.34487167
0.20086929
0.10900156
0.071170948
0.056679642
0.043855479
0.028216572
1.2179701
1.3447448
1.3725768
1.3174356
1.2904775
1.3392516
1.4623686
1.6286218
1.6987676
1.3842012
0.8070677
0.40660803
0.20978869
0.11463039
0.064259231
0.035659917
0.021501803
0.014391809
0.010823265
0.0088782331
0.0077088804
0.0069381621
0.0063931602
0.0059824435
0.0055885307
0.0052925537
0.0050680013
0.0049022763
0.0047853346
0.0047039957
0.0046469165
0.0046063395
0.0045771039
0.0045559854
0.0045404085
0.0045294724
0.0045211391
0.0045164188
0.0045094878
1.2046389
1.0531315
0.92052878
0.83385623
0.79953613
0.8040298
0.82561165
0.85284294
0.87603529
0.85755997
0.76968619
0.63181206
0.48758932
0.40051531
0.39138817
0.43561946
0.48905847
0.52093454
0.52725553
0.49804903
0.40402077
0.25328074
0.12721226
0.06442383
0.04256407
0.033210194
0.024477545
0.015861001
1.3304417
1.3618751
1.2986901
1.2552257
1.285205
1.3922599
1.5561938
1.7128802
1.6423327
1.1028009
0.59175221
0.31241659
0.1751905
0.10124484
0.057922547
0.032965478
0.020291452
0.013881151
0.010585326
0.0087496727
0.0076273551
0.0068812531
0.0063495739
0.0058636556
0.0055091943
0.0052377118
0.005029424
0.0048766498
0.0047690653
0.0046937959
0.0046405052
0.0046023038
0.0045745594
0.0045543168
0.0045393216
0.0045287502
0.0045206346
0.0045160685
0.0045091795
1.3199004
1.1971576
1.054558
0.9339625
0.85535463
0.82192515
0.82198975
0.84029962
0.86825651
0.89230288
0.87307761
0.76795621
0.60332304
0.44631184
0.35454181
0.3452408
0.38953078
0.44384139
0.47762643
0.47905279
0.42729587
0.30447399
0.16054189
0.071306304
0.03663813
0.025617355
0.019617006
0.014281249
0.0098516986
1.3548781
1.2867074
1.2274625
1.2397462
1.3304161
1.4844117
1.6673741
1.7652427
1.4534834
0.83051221
0.45024714
0.25696598
0.15349124
0.091671865
0.052873761
0.0307927
0.019274908
0.013433718
0.010364986
0.0086233733
0.007546147
0.0068221959
0.0061831464
0.005759193
0.0054396963
0.0051884988
0.0049951001
0.004854096
0.0047547941
0.0046848027
0.0046348204
0.0045986954
0.004572173
0.0045527545
0.0045382884
0.0045280528
0.0045201346
0.0045157179
0.004508865
1.3457706
1.3114063
1.1935881
1.0618819
0.95240761
0.88043659
0.84715614
0.84353121
0.85892452
0.88646463
0.91202865
0.87946229
0.74926411
0.56476034
0.39587044
0.30308726
0.29562154
0.33872397
0.38972788
0.41867856
0.40476079
0.32664697
0.19662689
0.087790552
0.037745927
0.021999703
0.016066749
0.012212567
0.0092358109
0.00716373
1.2761996
1.2039341
1.2011144
1.2770316
1.4187034
1.6032613
1.7733133
1.7324188
1.1725878
0.63162492
0.36606777
0.2240132
0.13906135
0.084468667
0.048877615
0.028936131
0.018414919
0.013035501
0.010156132
0.0085005086
0.0074626702
0.006580564
0.0060412639
0.005669118
0.0053779911
0.0051445502
0.0049647125
0.0048343602
0.0047423032
0.0046768964
0.0046297835
0.0045953338
0.0045699613
0.0045512903
0.0045373035
0.0045273776
0.0045196365
0.004515365
0.0045085431
1.2604188
1.3300139
1.299632
1.1928642
1.0739509
0.97500475
0.90853791
0.87512142
0.86813021
0.88104065
0.9080466
0.92862425
0.87630675
0.72054345
0.51264806
0.33628777
0.24786896
0.24431891
0.2840435
0.32608288
0.34147641
0.30632721
0.21405466
0.10754362
0.043781206
0.021497033
0.014202658
0.01066378
0.0084511286
0.0069435852
0.0059402846
1.1805981
1.1665955
1.2309433
1.3615755
1.5387784
1.7330152
1.8451009
1.5522264
0.91029677
0.51014183
0.31776596
0.20404134
0.12885294
0.078818654
0.045678706
0.027324694
0.017676904
0.012672061
0.0099588759
0.0083758076
0.0070945876
0.0063837744
0.0059218031
0.005590165
0.0053231941
0.0051054064
0.0049380081
0.0048171677
0.0047314144
0.0046699545
0.0046251211
0.004592249
0.0045679106
0.0045499159
0.0045363628
0.0045267207
0.0045191383
0.0045150086
0.0045082121
1.1529286
1.2336682