/*--------------------------------*- C++ -*----------------------------------*\
  =========                 |
  \\      /  F ield         | OpenFOAM: The Open Source CFD Toolbox
   \\    /   O peration     | Website:  https://openfoam.org
    \\  /    A nd           | Version:  8
     \\/     M anipulation  |
\*---------------------------------------------------------------------------*/
FoamFile
{
    version     2.0;
    format      ascii;
    class       volScalarField;
    location    "399.966377299886858";
    object      p;
}
// * * * * * * * * * * * * * * * * * * * * * * * * * * * * * * * * * * * * * //

dimensions      [0 2 -2 0 0 0 0];

internalField   nonuniform List<scalar> 
9200
(
0.00069431122
0.00070774912
0.0015485879
0.00071404715
0.0015782447
0.0025499678
0.00072686718
0.0016048155
0.0025967725
0.0034212354
0.00073012241
0.0016518131
0.0026465951
0.0034822926
0.0042880865
0.00071985881
0.0016999917
0.0027253228
0.003555508
0.0043645813
0.0050786428
0.00068339082
0.0017458518
0.0028090736
0.0036690463
0.0044629701
0.0051684464
0.0058037542
0.00061688033
0.0017746168
0.0028930599
0.0038003176
0.0046139445
0.0052893384
0.0059056303
0.0064574994
0.0004951721
0.0017683725
0.0029664573
0.0039486553
0.0047962527
0.0054726507
0.0060470119
0.0065694542
0.0070410388
0.00022667034
0.0016962794
0.0030219703
0.0041085344
0.0050115583
0.0056974308
0.0062593087
0.0067278092
0.0071611682
0.0075565846
-0.00023698097
0.0016132069
0.0030513099
0.004269658
0.0052560088
0.0059661555
0.0065212597
0.0069630218
0.0073332633
0.0076829691
0.0080082912
-0.00084308712
0.0015081109
0.0030370736
0.0044284267
0.0055265472
0.006279566
0.0068341422
0.007252458
0.007586354
0.0078664954
0.0081393231
0.0083999852
-0.0016052456
0.0012247759
0.0029543357
0.0045847776
0.0058262252
0.0066439918
0.0071987739
0.0075940011
0.0078960068
0.0081340919
0.0083326569
0.0085342753
0.0087355293
-0.002575913
0.00072671352
0.0027372686
0.0047086234
0.006162202
0.007070131
0.0076200176
0.0079842727
0.0082558709
0.0084604277
0.0086127775
0.0087356418
0.0088715949
0.0090190444
-0.0038082367
4.1613231e-05
0.0023513999
0.0047738327
0.0065286329
0.0075607556
0.0081095327
0.00842529
0.0086582254
0.0088378078
0.0089563848
0.009026258
0.0090789559
0.0091551888
0.0092548397
-0.0053123705
-0.00090913876
0.0017488901
0.0047611396
0.0069281336
0.008128911
0.0086716992
0.0089282396
0.0091025007
0.0092586807
0.0093528143
0.0093849489
0.0093776008
0.0093663973
0.0093891497
0.009447378
-0.007046083
-0.0022274415
0.00089159497
0.0046115418
0.007359185
0.0087925565
0.0093178762
0.0094904398
0.0095778676
0.0097134353
0.0097902224
0.0097965797
0.0097477661
0.0096704277
0.0096016973
0.0095777589
0.0096011955
-0.0089551113
-0.0040035845
-0.00020800586
0.0042820157
0.0077980511
0.0095694725
0.010070741
0.01011523
0.010083317
0.010148522
0.010243977
0.010247964
0.01017447
0.010050156
0.009907716
0.0097886677
0.0097254778
0.0097208913
-0.011031937
-0.0063970144
-0.0015661853
0.0037787148
0.0082244024
0.010475728
0.010954405
0.01082231
0.01062171
0.010572563
0.010699426
0.010715742
0.010647821
0.010493483
0.010294389
0.010092331
0.0099314034
0.0098368966
0.0098111458
-0.013641615
-0.0096117085
-0.0032106458
0.002981918
0.0086973385
0.011515975
0.011989178
0.011634653
0.011193561
0.011002523
0.011121284
0.011202122
0.011148694
0.010993807
0.010752374
0.010482158
0.010227952
0.010034307
0.0099166925
0.0098766133
-0.016049101
-0.012968364
-0.0051237259
0.0016694285
0.009192116
0.012760834
0.013188353
0.012569891
0.011805915
0.011407052
0.011468069
0.011665913
0.011675141
0.011538187
0.011279172
0.010948527
0.010614595
0.010318478
0.010102061
0.0099696006
0.0099217204
-0.017605567
-0.016331191
-0.0073621558
-0.00026255099
0.0095298523
0.014267408
0.014537306
0.013642498
0.012459452
0.011761338
0.011727933
0.012042424
0.012192844
0.012120806
0.011867712
0.011495991
0.011081134
0.010694101
0.010368535
0.010139512
0.010000248
0.0099505088
-0.018825689
-0.020561696
-0.010492882
-0.0029200841
0.0095561921
0.015930898
0.016083036
0.014846869
0.01315367
0.012035947
0.01186265
0.012301958
0.012656496
0.012713717
0.01250888
0.012118056
0.011638507
0.011152117
0.010726073
0.010382953
0.010151445
0.010012809
0.0099667829
-0.0194783
-0.024944373
-0.015110348
-0.0067962388
0.0091102568
0.017677862
0.017790023
0.016170686
0.013887605
0.012196285
0.011835038
0.012401013
0.013029056
0.013290041
0.013187277
0.01280781
0.01228019
0.011707282
0.01116732
0.010715305
0.010366724
0.01014221
0.010011176
0.0099745113
-0.019528051
-0.029087574
-0.020956847
-0.011070215
0.0082253729
0.019563894
0.019523343
0.017596992
0.014630864
0.012210285
0.011537625
0.012274502
0.01326537
0.013824466
0.013889318
0.013561511
0.013002818
0.012354717
0.011705804
0.011130768
0.010667072
0.010325203
0.010116205
0.0099998504
0.0099775065
-0.019413956
-0.033365719
-0.027236523
-0.014721611
0.0071868812
0.021564153
0.021203204
0.019037205
0.015356193
0.012056593
0.010914497
0.011824275
0.013308005
0.014286058
0.014602255
0.014376319
0.013809045
0.013091806
0.012339702
0.011640714
0.0110481
0.010587617
0.010263594
0.010079017
0.0099832313
0.0099779953
-0.019347432
-0.037431828
-0.033239828
-0.01825599
0.0059531721
0.023256236
0.022744631
0.020371116
0.016001412
0.011673558
0.0098688565
0.010936259
0.013077541
0.01463426
0.015311695
0.015249725
0.014704088
0.013923143
0.013072457
0.012245839
0.01152021
0.010926673
0.010483391
0.010185341
0.010035295
0.0099628349
0.0099778057
-0.01929608
-0.041038338
-0.038768951
-0.021893467
0.0045162828
0.024227357
0.024067854
0.021488055
0.016507031
0.010890362
0.0082079048
0.0096190138
0.012495819
0.01482187
0.016002895
0.016181873
0.015691848
0.014857293
0.01390566
0.012951962
0.012083858
0.011351481
0.010773302
0.010358326
0.01009363
0.0099838813
0.009940542
0.0099794919
-0.019204607
-0.04401636
-0.043655837
-0.025377797
0.0029128585
0.024415565
0.025146723
0.022269661
0.016849205
0.0096165076
0.0057401256
0.0073110746
0.011419817
0.014790386
0.016659586
0.017176942
0.016779961
0.015900246
0.014843256
0.013761573
0.012746344
0.01186286
0.011142034
0.010592695
0.010215076
0.0099970454
0.0099282928
0.0099197742
0.009984954
-0.019067649
-0.046313463
-0.047818623
-0.028558136
0.0011819264
0.023865424
0.025916422
0.022629688
0.016939401
0.0078320464
0.0022123759
0.0039435996
0.0096890172
0.014338053
0.017241983
0.018229441
0.017970476
0.017061084
0.015887496
0.014678247
0.013511883
0.012472092
0.011594623
0.010900425
0.010388846
0.010061556
0.0098988381
0.0098760669
0.009902997
0.0099957236
-0.018738195
-0.047970591
-0.051295385
-0.031348348
-0.00064885459
0.022677256
0.026179838
0.022459951
0.016689495
0.0054747223
-0.0026297224
-0.00076279122
0.0072422829
0.01341399
0.017605722
0.019319863
0.019264044
0.018341989
0.017051629
0.015679102
0.014375236
0.013180047
0.012142398
0.011288966
0.010633193
0.010169262
0.009904172
0.0097988907
0.0098276871
0.009891898
0.010013102
-0.01821708
-0.048919451
-0.054101241
-0.033637752
-0.0025504148
0.020918461
0.025723018
0.021662797
0.015938812
0.0024559901
-0.008886589
-0.0067856063
0.0038382539
0.011895808
0.017747643
0.020363722
0.020655293
0.019740539
0.018333862
0.016803836
0.015326445
0.013978356
0.012784708
0.011769078
0.010952506
0.010345155
0.0099420861
0.0097439473
0.0097008994
0.0097839856
0.0098878157
0.010037992
-0.01750987
-0.049339914
-0.056267163
-0.035281184
-0.0045274536
0.018624732
0.024478092
0.020152461
0.01467971
-0.001429023
-0.01696183
-0.014229133
-0.00088251233
0.0093506831
0.017618032
0.021344761
0.022098165
0.021245849
0.019723961
0.018020898
0.016366577
0.01485495
0.013510595
0.012340274
0.011360124
0.010590148
0.010043331
0.0097117443
0.0095843737
0.0096072913
0.0097478151
0.009891928
0.010071073
-0.016635216
-0.049029364
-0.057931627
-0.036699036
-0.0065933663
0.015982907
0.022504438
0.018007182
0.012976628
-0.0059840742
-0.02610128
-0.023084746
-0.0069540161
0.0054174209
0.016913248
0.022324877
0.023507287
0.022827148
0.021200144
0.019317455
0.01747485
0.015795741
0.014304375
0.012991202
0.011856858
0.010921012
0.010207639
0.0097331347
0.0094803821
0.0094291956
0.0095207106
0.0097201325
0.0099049306
0.010112769
-0.015607747
-0.047945442
-0.058594712
-0.038190656
-0.0093437437
0.013035301
0.019884628
0.015474672
0.010745334
-0.011073949
-0.035333741
-0.033554861
-0.014351022
-0.00010906906
0.015275822
0.023131633
0.024946749
0.024394516
0.022725595
0.020668421
0.018627649
0.016775397
0.015143281
0.013703597
0.012433389
0.011340755
0.010456435
0.0098105759
0.0094174146
0.0092504381
0.0092808537
0.0094436332
0.0097019006
0.0099273639
0.01016329
-0.014437003
-0.046077563
-0.058237426
-0.039257249
-0.012323059
0.0085811934
0.016939578
0.012601389
0.0078174943
-0.01657403
-0.044536344
-0.045741878
-0.024496325
-0.0079134746
0.012424867
0.02344898
0.026332235
0.025902339
0.024237068
0.022034771
0.019792483
0.017761021
0.015994454
0.014449449
0.013071321
0.01184428
0.010795563
0.0099703883
0.0094019572
0.009100034
0.0090250317
0.0091417792
0.0093776472
0.009694218
0.0099595561
0.010222667
-0.013134364
-0.043431775
-0.056811811
-0.039748356
-0.015355583
0.0036543479
0.01255884
0.0096182693
0.0043160683
-0.022304009
-0.053697442
-0.058579438
-0.037165506
-0.01720693
0.0084808788
0.023008074
0.0273374
0.027349908
0.025592145
0.023359541
0.020925521
0.018711024
0.016815333
0.01518916
0.013740771
0.012416297
0.011225998
0.010223157
0.0094657205
0.0089841513
0.0087815681
0.0088074494
0.0090139181
0.009323983
0.009697525
0.010001617
0.010290761
-0.011714501
-0.040039378
-0.054300781
-0.039561281
-0.01832081
-0.0019148623
0.0074993737
0.0058848644
0.00030085006
-0.028066079
-0.062648004
-0.071439933
-0.050844754
-0.026737681
0.0035385736
0.021676909
0.027660219
0.028559997
0.026697582
0.024560258
0.021969102
0.019573686
0.017553373
0.015870904
0.014398221
0.013029036
0.011738628
0.010577282
0.0096247658
0.0089454708
0.0085657112
0.0084691662
0.008600466
0.0088992558
0.0092832915
0.0097123183
0.010053526
0.010367302
-0.010193242
-0.03596284
-0.050721542
-0.038620859
-0.02117097
-0.0079022408
0.0012205524
0.0021610945
-0.0039447528
-0.033951422
-0.071091125
-0.083993567
-0.0644991
-0.036418627
-0.0024443255
0.019157772
0.027153243
0.029110854
0.028206381
0.02553034
0.02285287
0.0202864
0.018145681
0.016430225
0.014984922
0.013639531
0.012312134
0.011032134
0.0098954301
0.0090020811
0.0084140454
0.0081469115
0.0081663854
0.0084068731
0.0087992367
0.0092559601
0.0097389086
0.010115085
0.010451918
-0.0085960974
-0.031289781
-0.046133978
-0.036896161
-0.023845244
-0.014244051
-0.0060740393
-0.0028766658
-0.0076706575
-0.038048812
-0.07915416
-0.095686253
-0.077450659
-0.046147494
-0.0090897495
0.015381672
0.026042237
0.028872071
0.028594904
0.026246187
0.023476737
0.020773881
0.018518472
0.016789833
0.015425627
0.014186806
0.012909672
0.011576835
0.010287416
0.0091781184
0.0083575798
0.0078775958
0.0077338517
0.0078766749
0.0082291191
0.0087147225
0.0092424719
0.0097771675
0.010185982
0.01054417
-0.026136156
-0.0069345847
-0.040667988
-0.034424624
-0.026316531
-0.020826196
-0.014218976
-0.0093571281
-0.011512838
-0.041343737
-0.08409191
-0.10674859
-0.090231265
-0.055691696
-0.016104236
0.010798841
0.02425154
0.027794841
0.028296415
0.026481412
0.023733923
0.020954493
0.018590272
0.016859758
0.015627606
0.014589119
0.013475055
0.012186341
0.010803248
0.0094949879
0.0084246053
0.0076952532
0.007339725
0.0073311633
0.0076033443
0.0080691303
0.0086465207
0.0092430595
0.0098266126
0.010265873
0.010643575
-0.034516207
-0.020618903
-0.005233622
-0.03134637
-0.028581637
-0.02757308
-0.023096329
-0.01685089
-0.015863555
-0.044425143
-0.08900037
-0.11511296
-0.10254704
-0.064991105
-0.023401415
0.0057328103
0.021325623
0.025886828
0.027127518
0.026104495
0.023534007
0.020715043
0.018269131
0.01654149
0.015480554
0.014741145
0.013928105
0.012817295
0.011434396
0.0099701408
0.0086479608
0.0076368557
0.0070210721
0.0068065945
0.006943426
0.0073493426
0.0079284077
0.0085951616
0.0092576465
0.0098865652
0.010354353
0.01074961
-0.027712938
-0.027817974
-0.014891735
-0.0035034625
-0.030493869
-0.034445058
-0.032541007
-0.025115642
-0.02073811
-0.047344613
-0.092796408
-0.12432708
-0.11288361
-0.073091954
-0.030588238
0.00028454543
0.016988023
0.023210356
0.024976573
0.024945348
0.022796552
0.01995963
0.017449784
0.015712472
0.014855648
0.014511842
0.014159279
0.013401761
0.012157115
0.010614453
0.0090601529
0.0077438949
0.0068199694
0.006341448
0.0062840229
0.0065749171
0.0071171616
0.0078081581
0.0085608581
0.0092858481
0.0099565936
0.010450804
0.010861667
-0.031792959
-0.023474194
-0.020805967
-0.0091399951
-0.0017928553
-0.041170027
-0.042325834
-0.03393945
-0.025955186
-0.050283451
-0.095322156
-0.13076725
-0.12526648
-0.08040953
-0.037397971
-0.0052564166
0.011254492
0.019736746
0.021828299
0.022875659
0.021403246
0.018612467
0.016027786
0.014252899
0.013597513
0.013740792
0.014024761
0.013840898
0.012925338
0.011428024
0.0096908642
0.0080627841
0.0067846445
0.0059810773
0.0056638665
0.0057780529
0.0062295378
0.0069089138
0.0077091008
0.0085436995
0.0093270953
0.010036392
0.010554187
0.010978996
-0.047509123
-0.032619464
-0.018985993
-0.01377185
-0.0035026293
-0.00013899224
-0.052175173
-0.043118859
-0.031358036
-0.053103937
-0.096783991
-0.13483453
-0.13531764
-0.090270453
-0.04609168
-0.010741982
0.0053061986
0.015409455
0.017749387
0.019818127
0.019253298
0.016598401
0.013895124
0.012058917
0.011551299
0.012242114
0.013338527
0.01399586
0.013667088
0.012391915
0.010566691
0.0086373967
0.0069720731
0.0057780069
0.0051293654
0.0049962105
0.005294459
0.0059107942
0.0067261768
0.0076316322
0.0085434559
0.0093808362
0.010125341
0.01066359
0.011100643
-0.06173884
-0.053393576
-0.032950752
-0.014493264
-0.0069094095
0.0019607953
0.0014455343
-0.052386052
-0.036847317
-0.055613811
-0.09699378
-0.13640749
-0.14292578
-0.099484061
-0.056114621
-0.019612559
-0.00038736822
0.010417072
0.012911699
0.015748873
0.016280095
0.013868946
0.011002567
0.0090328451
0.008556891
0.0097870384
0.011885255
0.013670561
0.014269913
0.013465605
0.011697272
0.0095249807
0.0074456566
0.0057957829
0.0047350334
0.0042752448
0.0043465749
0.0048386496
0.0056216703
0.0065699685
0.0075758518
0.0085596743
0.0094464238
0.010222586
0.010778689
0.011225981
-0.061336264
-0.07067317
-0.058479104
-0.032626562
-0.01009204
-0.00038773777
0.0071393584
0.0029664751
-0.042289029
-0.057563166
-0.09573617
-0.13538557
-0.14763785
-0.10797459
-0.066119897
-0.028613781
-0.0098073519
0.0053456088
0.0070216572
0.010761662
0.01244338
0.01040814
0.0073244867
0.0050740186
0.0044662967
0.0061119926
0.0093836723
0.012618467
0.014552192
0.014588486
0.013077327
0.010757709
0.0082773556
0.0061134791
0.0045467818
0.0036696057
0.0034294832
0.0037231055
0.0044155661
0.0053643856
0.0064409648
0.0075415244
0.0085916988
0.0095230697
0.010327331
0.010899098
0.011354839
-0.047571906
-0.069577176
-0.078526126
-0.062719689
-0.031765348
-0.0058660936
0.0056438117
0.011942349
0.0044148203
-0.058671316
-0.092957898
-0.13183246
-0.14921107
-0.11526624
-0.074978307
-0.038472319
-0.018052781
-0.0035761184
0.0011387854
0.0048284404
0.0077693692
0.0062058628
0.0027996123
0.00012776141
-0.00084022825
0.00095061073
0.0054623433
0.0105558
0.014299067
0.015620713
0.014682235
0.012361893
0.009523075
0.0068170883
0.0046549546
0.0032461449
0.002595288
0.0026033782
0.0031334394
0.0040293095
0.0051404753
0.006339375
0.0075280318
0.0086386536
0.0096100321
0.010438971
0.011024193
0.011486758
-0.058633195
-0.052353037
-0.07653169
-0.085049634
-0.065993008
-0.030443853
-0.001867714
0.011065556
0.016290665
0.0057902051
-0.088698627
-0.12586749
-0.14715503
-0.1203563
-0.081629534
-0.047986313
-0.028211358
-0.011913513
-0.0078858886
-0.0014460482
0.0022338798
0.0013395567
-0.0025360832
-0.005909573
-0.0075157536
-0.0059641151
-0.00032568559
0.0070780782
0.013196868
0.01642145
0.016454542
0.014353945
0.011234855
0.0079749068
0.0051558967
0.0030973171
0.0019113715
0.0015254815
0.0018072187
0.0025842077
0.0036831658
0.0049509103
0.0062647769
0.0075344775
0.0086997611
0.0097067707
0.010556894
0.011153093
0.011621047
-0.083078712
-0.057516026
-0.056034
-0.081960053
-0.089982299
-0.068245606
-0.028784437
0.0018500183
0.015782236
0.020114844
0.0070657729
-0.11766136
-0.14137407
-0.1224882
-0.085706285
-0.056948602
-0.038699114
-0.023378294
-0.010899511
-0.0098768895
-0.0037585051
-0.0042104376
-0.0085518565
-0.01293141
-0.01572898
-0.014970889
-0.0085485269
0.0016131371
0.010791631
0.01675532
0.01830517
0.016728882
0.013462236
0.0096596644
0.0061222002
0.0033224737
0.0014680012
0.0005513601
0.00047918759
0.0010536497
0.0020821883
0.0033793692
0.004795793
0.0062163843
0.0075601857
0.008774606
0.009812591
0.010679846
0.011284661
0.011757442
-0.10755425
-0.07613918
-0.055417016
-0.058587817
-0.085558968
-0.093163174
-0.069457285
-0.026919039
0.0051991881
0.019673005
0.023343937
0.0081822115
-0.13225673
-0.12088631
-0.087224551
-0.06488507
-0.049500993
-0.03588774
-0.021453128
-0.016914383
-0.011123484
-0.0099995411
-0.015191959
-0.020827637
-0.025229984
-0.02638365
-0.01982368
-0.0065378948
0.0064437557
0.016277426
0.020076764
0.019449136
0.016237127
0.011945286
0.0076412391
0.0039962027
0.0013517447
-0.00022053353
-0.00079791489
-0.00052381893
0.00035568486
0.001631821
0.0031188559
0.00467466
0.0061937996
0.0076049765
0.0088623077
0.0099254271
0.010806108
0.011418959
0.011903172
-0.12046807
-0.095801684
-0.068277187
-0.052223866
-0.060027468
-0.087084492
-0.094533556
-0.06967311
-0.024940807
0.0081302075
0.022697822
0.025896593
0.0091334183
-0.11562055
-0.086654821
-0.071493024
-0.060312745
-0.049293073
-0.034426641
-0.026283543
-0.017732755
-0.016373387
-0.021885184
-0.029167654
-0.036257481
-0.040189134
-0.035206225
-0.018521699
0.00075051929
0.014466966
0.021536659
0.022426645
0.019561144
0.014889664
0.0098042677
0.0052169051
0.0016439015
-0.00072921819
-0.0019397032
-0.0020984948
-0.0014634243
-0.00028021164
0.0012351606
0.0029018253
0.004587626
0.0061972264
0.0076676542
0.0089596197
0.0100425
0.010936514
0.011567324
0.012059987
-0.10736124
-0.10669421
-0.083182848
-0.059616943
-0.04825691
-0.06030296
-0.086455474
-0.094149691
-0.068949554
-0.022841074
0.0107458
0.024974301
0.027665968
0.01005996
-0.084323949
-0.076500637
-0.070779049
-0.063323075
-0.049665551
-0.03885548
-0.026105776
-0.021519957
-0.028564057
-0.037724202
-0.047774448
-0.057192566
-0.055737911
-0.035874274
-0.0093010357
0.010976115
0.022311428
0.02550419
0.02339139
0.018521237
0.01268563
0.007086305
0.0024494264
-0.00088454448
-0.002880513
-0.0036249972
-0.0033353693
-0.0023322721
-0.00085095553
0.00089323698
0.002729198
0.004535457
0.0062249863
0.0077433047
0.0090625702
0.010166324
0.011089044
0.011727228
0.012224452
-0.080311908
-0.096751802
-0.092069033
-0.070099376
-0.050589256
-0.043688182
-0.05952277
-0.08400007
-0.092138389
-0.06725715
-0.020605284
0.013292092
0.026505139
0.028998938
0.010959874
-0.079666982
-0.080528996
-0.077836784
-0.066780565
-0.053977181
-0.037121521
-0.028102337
-0.033153425
-0.045347511
-0.061431152
-0.075427819
-0.079730637
-0.057101616
-0.023356221
0.0040966558
0.022021714
0.028396263
0.027616181
0.022824039
0.016330516
0.0096868328
0.0038728062
-0.00058561948
-0.0035347033
-0.0050277371
-0.0052395273
-0.0044979985
-0.0031254244
-0.0013543707
0.00060807462
0.0026024917
0.0045158239
0.0062699792
0.0078265912
0.0091761064
0.010327269
0.011252645
0.011896355
0.012396175
-0.080501762
-0.074600442
-0.084730542
-0.077195147
-0.057098357
-0.04151876
-0.038567711
-0.057651872
-0.08026001
-0.088677261
-0.064720133
-0.018034384
0.015573628
0.027627588
0.029805674
0.011819056
-0.08923337
-0.092560335
-0.085262996
-0.071661029
-0.05053052
-0.036660525
-0.038639609
-0.050372895
-0.071685729
-0.097445264
-0.10451882
-0.082176405
-0.041869627
-0.0079176221
0.019080939
0.030731453
0.031996037
0.02771533
0.020738992
0.013072373
0.005998366
0.00026596352
-0.0038121373
-0.006223513
-0.007113692
-0.0067716773
-0.0055761312
-0.0038378337
-0.0017868569
0.00038234845
0.0025186478
0.0045189145
0.0063253883
0.0079259542
0.0093468579
0.010501169
0.011427637
0.012073275
0.012575365
-0.096472769
-0.079179978
-0.067719129
-0.071832369
-0.062656995
-0.044439831
-0.032523145
-0.03295429
-0.054542321
-0.075552076
-0.083702183
-0.061874781
-0.014761187
0.017511719
0.028209371
0.029996719
0.012624483
-0.10707122
-0.1049862
-0.091635128
-0.066090894
-0.046958932
-0.04547659
-0.055732918
-0.078992962
-0.11220852
-0.1325937
-0.11029342
-0.065013558
-0.023585903
0.013112241
0.031488455
0.036210006
0.032998861
0.025846409
0.017252485
0.0088834014
0.0017525398
-0.0036290665
-0.0071372595
-0.0088750998
-0.0091111577
-0.0082080551
-0.0065585709
-0.0044631123
-0.0021437207
0.00021249002
0.0024646507
0.0045363058
0.0064042887
0.0081100806
0.0095336572
0.010689163
0.011611025
0.012258625
0.012761852
-0.12064728
-0.10218358
-0.076358167
-0.060189423
-0.05883226
-0.048843885
-0.032315391
-0.023732589
-0.026975828
-0.050412983
-0.070033675
-0.078795268
-0.057404443
-0.01148026
0.019080078
0.028215117
0.029519571
0.013363509
-0.12554126
-0.11333206
-0.083846623
-0.058648134
-0.053568766
-0.061992346
-0.085123353
-0.1260186
-0.15063931
-0.13964725
-0.088509135
-0.039017563
0.0063319247
0.030517878
0.039617309
0.038364952
0.031499424
0.022174646
0.012543353
0.0039323694
-0.0029087965
-0.0077025667
-0.010463921
-0.011443469
-0.010997338
-0.0095307198
-0.0074344196
-0.0049933246
-0.002428207
8.1837294e-05
0.0024301888
0.0045869603
0.0066038844
0.0083159417
0.0097379726
0.010885852
0.011803666
0.012451886
0.012955634
-0.1458959
-0.13281024
-0.10591235
-0.072527312
-0.052557199
-0.046592142
-0.036079244
-0.021062121
-0.015292823
-0.020762868
-0.045467366
-0.065356159
-0.072721148
-0.052203327
-0.0081938422
0.020218402
0.027626302
0.028350616
0.014037393
-0.13607709
-0.10330913
-0.071470913
-0.062622521
-0.069076582
-0.091232198
-0.13588954
-0.17622581
-0.16282205
-0.11465791
-0.056008644
-0.0021883814
0.02882548
0.041781522
0.043380745
0.037403902
0.027710198
0.016932646
0.006826999
-0.0015965475
-0.0078451616
-0.011827262
-0.013721549
-0.013889737
-0.012747337
-0.010723907
-0.008191479
-0.0054299746
-0.0026610406
-2.2450931e-05
0.0024415712
0.0048045973
0.0068342288
0.0085432096
0.0099510863
0.011092766
0.012004746
0.012653129
0.013156561
-0.15889914
-0.16512275
-0.14269576
-0.1075893
-0.068054333
-0.044874979
-0.035499971
-0.024583183
-0.010941938
-0.0071853793
-0.014695184
-0.040883125
-0.059840849
-0.065892721
-0.04623778
-0.0050192157
0.020902398
0.026466828
0.026519384
0.014658864
-0.12355896
-0.085182453
-0.072303837
-0.076522664
-0.097902513
-0.1438297
-0.19392524
-0.20143193
-0.13888132
-0.074859137
-0.014247193
0.024772384
0.043088499
0.04748924
0.043243762
0.033609816
0.021940066
0.010390466
0.00033707401
-0.0075232727
-0.012907388
-0.015907261
-0.016853086
-0.016176763
-0.014340781
-0.011770381
-0.0088278119
-0.0057981063
-0.0028589158
-6.5062688e-05
0.0026791332
0.0050664448
0.0070903662
0.0087791934
0.010175471
0.011308705
0.012214427
0.012862029
0.013364519
-0.1434039
-0.18086538
-0.18153034
-0.15024442
-0.10728109
-0.063155937
-0.037308409
-0.025587767
-0.014527325
-0.002121733
-7.3242843e-06
-0.00865632
-0.036624579
-0.053630807
-0.058208539
-0.039712864
-0.0020313846
0.021142081
0.024796364
0.024170643
0.015073304
-0.099289631
-0.082016617
-0.084091855
-0.10430192
-0.15136356
-0.20720227
-0.22948913
-0.18017705
-0.093605942
-0.028166865
0.017245329
0.042248413
0.050496455
0.048579589
0.039548626
0.027356074
0.01453495
0.0028273416
-0.0067166047
-0.013665773
-0.017961751
-0.019863034
-0.019804018
-0.018275197
-0.015753906
-0.012663061
-0.0093728147
-0.006120489
-0.0029755774
0.00019368329
0.0029803828
0.0053590019
0.0073550319
0.0090275595
0.01040957
0.011533879
0.012432215
0.013078405
0.013579362
-0.11261233
-0.16167242
-0.19949025
-0.19444842
-0.15503006
-0.1054538
-0.058116701
-0.030261366
-0.017132353
-0.0064605913
0.0048614861
0.0072559541
-0.004177051
-0.031685465
-0.047008861
-0.049742767
-0.032935868
0.00067399104
0.020982818
0.022873407
0.021329728
0.014928965
-0.090988815
-0.091213693
-0.1098034
-0.15747148
-0.21729789
-0.25429963
-0.21926442
-0.12781111
-0.050009022
0.00697136
0.037717556
0.051912484
0.0525191
0.045208714
0.032858174
0.019067751
0.0058464211
-0.0054539079
-0.014093196
-0.019855764
-0.022899338
-0.02362049
-0.022531747
-0.020151581
-0.016973545
-0.013435649
-0.0098585533
-0.0063379844
-0.0026953475
0.00054339354
0.0033177689
0.0056597967
0.0076332933
0.0092863468
0.010653543
0.011767669
0.012657873
0.013301967
0.013800965
-0.098398423
-0.12376825
-0.17568286
-0.21292845
-0.20297491
-0.15674059
-0.10233627
-0.053264335
-0.024122618
-0.010474404
-0.00018882848
0.011550095
0.011871547
0.00026077447
-0.026117584
-0.039854317
-0.040794929
-0.026251445
0.0030703784
0.020282988
0.021076604
0.018256959
0.013884637
-0.097066436
-0.11463366
-0.16072394
-0.22300002
-0.27393547
-0.25769746
-0.16630019
-0.079686071
-0.014193247
0.029473022
0.050093272
0.054692136
0.049898986
0.038126848
0.023720032
0.0091991615
-0.0037893552
-0.01420792
-0.02158854
-0.025949073
-0.027624888
-0.02711818
-0.024988526
-0.021779171
-0.018041988
-0.014133393
-0.010211487
-0.0060368252
-0.0022866096
0.00093538087
0.0036630922
0.0059755324
0.0079227135
0.0095557408
0.010906657
0.012009747
0.012891032
0.01353273
0.014029003
-0.10117317
-0.10379604
-0.13116982
-0.18359705
-0.21927347
-0.20630739
-0.15540171
-0.098372367
-0.048867903
-0.019077212
-0.0050702962
0.0064908232
0.015778284
0.016291272
0.004516874
-0.020153944
-0.031982828
-0.031634418
-0.01961737
0.0050863475
0.018895355
0.019314289
0.015427482
0.012203507
-0.11801271
-0.16016067
-0.22333402
-0.2858913
-0.29126409
-0.20626861
-0.11399295
-0.036665453
0.0096861862
0.044163809
0.05511639
0.052582314
0.042665491
0.028141534
0.01267124
-0.0018667443
-0.014063618
-0.023179907
-0.029023206
-0.031823998
-0.032052232
-0.030288885
-0.027137359
-0.023202125
-0.01900998
-0.014665108
-0.0098894322
-0.0055565003
-0.0018285914
0.0013350982
0.0040248567
0.0063032885
0.0082235683
0.0098348589
0.011168462
0.012259699
0.013131993
0.013770242
0.014263261
-0.11882305
-0.1031144
-0.10707514
-0.13431846
-0.18446632
-0.21773216
-0.20393863
-0.15152106
-0.093987205
-0.044676646
-0.014807274
0.0010728706
0.011364975
0.019717899
0.020429699
0.0083055963
-0.0141433
-0.023556388
-0.022738051
-0.013034846
0.0066916375
0.017211094
0.017458514
0.012976609
0.010404255
-0.1557816
-0.21796066
-0.28844286
-0.31400216
-0.24429128
-0.14689019
-0.065380071
-0.0079023412
0.027001762
0.052779762
0.053550731
0.046134024
0.031773787
0.015969108
0.00013984408
-0.01377546
-0.024680419
-0.03214815
-0.036242263
-0.037362327
-0.036086652
-0.033081679
-0.029044054
-0.024532249
-0.019772243
-0.01431965
-0.0093218189
-0.0050188794
-0.0013628697
0.001753005
0.0043997033
0.0066434738
0.0085347955
0.01012316
0.011438525
0.012518387
0.013379796
0.014014125
0.014503474
-0.1488056
-0.11537114
-0.10216284
-0.10760964
-0.13339256
-0.17806908
-0.20891479
-0.19620862
-0.14551149
-0.088489012
-0.040365674
-0.0095548757
0.0061206791
0.015991819
0.022889366
0.023724857
0.011592878
-0.0085729811
-0.015261847
-0.014840152
-0.0072266195
0.0078416267
0.015596639
0.015604664
0.010897067
0.0086312174
-0.20722582
-0.28081809
-0.32339926
-0.27419332
-0.17755335
-0.09428104
-0.032833281
0.011775909
0.039237733
0.053681156
0.047217286
0.034509537
0.018659867
0.0019831167
-0.013480105
-0.026187173
-0.035375394
-0.040916887
-0.04308549
-0.042428655
-0.039659622
-0.035578043
-0.030823028
-0.0256002
-0.019399321
-0.01364562
-0.008687798
-0.0044734547
-0.00087682649
0.0021853984
0.0047881746
0.0069948341
0.0088557338
0.010420278
0.011718472
0.01278439
0.013633934
0.014263918
0.014749381
-0.19215502
-0.13833106
-0.10839252
-0.097612771
-0.10383786
-0.12809651
-0.16472519
-0.1944461
-0.18379507
-0.13672825
-0.081812657
-0.034210299
-0.0041957751
0.010882004
0.019839639
0.025291464
0.026001391
0.014430435
-0.0032804908
-0.0080921289
-0.0084964141
-0.0025429437
0.0086608436
0.014103791
0.013759782
0.0091187153
0.0069852409
-0.26406235
-0.31748875
-0.29223756
-0.20322548
-0.122837
-0.058534114
-0.010878293
0.02562376
0.044603431
0.048184553
0.03429251
0.020663756
0.0033521887
-0.013391601
-0.027807792
-0.038792679
-0.04590766
-0.049276191
-0.049371482
-0.046939077
-0.042876251
-0.037920817
-0.03225566
-0.025201805
-0.018597178
-0.012894577
-0.0080461636
-0.0039049306
-0.00037446485
0.0026329313
0.005188833
0.0073566015
0.0091861591
0.010728855
0.012006221
0.013056991
0.013893799
0.014519228
0.015000714
-0.24023533
-0.17287565
-0.12503979
-0.098934872
-0.089608444
-0.095791861
-0.11895181
-0.14688356
-0.17565624
-0.16798797
-0.12445097
-0.074772224
-0.025561377
0.0010135378
0.014988489
0.022928436
0.026987689
0.027300466
0.016703615
0.0019219433
-0.0026584541
-0.0033719546
0.0011964023
0.0091764446
0.012759502
0.012006925
0.0076487767
0.0055870305
-0.29770892
-0.2947631
-0.22027619
-0.14750892
-0.084547495
-0.035240003
0.0053409506
0.033783528
0.043055628
0.039266207
0.020997364
0.0041090366
-0.013733147
-0.029736469
-0.042490637
-0.051301988
-0.056008808
-0.056988374
-0.054998217
-0.051031209
-0.045919677
-0.039828236
-0.031815643
-0.024247985
-0.017705289
-0.012136241
-0.0073781025
-0.0033177784
0.00014501545
0.0030940243
0.0056008385
0.0077287758
0.0095300495
0.011045961
0.012300795
0.013335355
0.014158937
0.014779645
0.015257192
-0.26786345
-0.21075573
-0.15129474
-0.10982283
-0.087249444
-0.078868344
-0.084624252
-0.10620576
-0.1281709
-0.15432012
-0.14625551
-0.11493501
-0.063270006
-0.017796864
0.0056182328
0.018415274
0.02523574
0.028016763
0.027674523
0.018288886
0.0063197826
0.0015479771
0.00055313306
0.0040259476
0.0094517073
0.011539209
0.01045133
0.0065005161
0.0044508282
-0.28131519
-0.22727539
-0.16429921
-0.10812079
-0.060663531
-0.018254056
0.015472683
0.036535015
0.035446256
0.022465647
0.0033817302
-0.014649705
-0.032117451
-0.046655545
-0.057188465
-0.063379152
-0.065370983
-0.063926256
-0.060137994