/*--------------------------------*- C++ -*----------------------------------*\
  =========                 |
  \\      /  F ield         | OpenFOAM: The Open Source CFD Toolbox
   \\    /   O peration     | Website:  https://openfoam.org
    \\  /    A nd           | Version:  8
     \\/     M anipulation  |
\*---------------------------------------------------------------------------*/
FoamFile
{
    version     2.0;
    format      ascii;
    class       surfaceScalarField;
    location    "399.966377299886858";
    object      phi;
}
// * * * * * * * * * * * * * * * * * * * * * * * * * * * * * * * * * * * * * //

dimensions      [0 3 -1 0 0 0 0];

internalField   nonuniform List<scalar> 
18180
(
-0.001659564
-1.3862031
-0.0032365883
-1.296424
-0.0015933389
-1.3846097
-0.0047222387
-1.2126035
-0.0031054549
-1.2949119
-0.001516918
-1.3830928
-0.0061230687
-1.1342991
-0.0045398242
-1.2111692
-0.0029570786
-1.2934718
-0.0014120104
-1.3816808
-0.0074110806
-1.0611405
-0.0059019594
-1.132937
-0.0043344175
-1.2097918
-0.0027556018
-1.2921282
-0.0012967861
-1.380384
-0.0085538585
-0.99277655
-0.007174324
-1.0598682
-0.005663091
-1.1316083
-0.0040468807
-1.2085006
-0.0025292859
-1.2908957
-0.0011727409
-1.3792113
-0.0094983338
-0.92889665
-0.0083336694
-0.99161721
-0.0069483934
-1.0585828
-0.0053109315
-1.1303442
-0.0037133207
-1.2073165
-0.0022832363
-1.2897852
-0.0010522096
-1.3781591
-0.010189906
-0.86919226
-0.0093446986
-0.92788562
-0.0081883796
-0.99037722
-0.0065783079
-1.0573155
-0.0048746772
-1.1291829
-0.0033422904
-1.2062575
-0.0020432004
-1.2887942
-0.00094195167
-1.3772171
-0.010556851
-0.81339523
-0.010153511
-0.86838344
-0.0093895139
-0.92668449
-0.0078839153
-0.98907161
-0.0060511547
-1.056139
-0.0043687016
-1.1281565
-0.0029788329
-1.2053218
-0.0018238398
-1.2879123
-0.00084683374
-1.3763703
-0.010444648
-0.76135374
-0.010701876
-0.81284687
-0.010566776
-0.86720618
-0.0092713317
-0.92529707
-0.0072930686
-0.9878297
-0.0053906068
-1.0551171
-0.0038687023
-1.1272666
-0.0026474762
-1.2044982
-0.0016362194
-1.2871229
-0.00076716977
-1.3756031
-0.0097407172
-0.71289469
-0.011050863
-0.76100475
-0.011779597
-0.81163405
-0.010804445
-0.86567307
-0.0086569517
-0.92393319
-0.0064482655
-0.98677204
-0.0047224071
-1.0542634
-0.0034139215
-1.1265002
-0.0023682199
-1.2037662
-0.0014820427
-1.286408
-0.00070084163
-1.3749023
-0.0081925274
-0.66782073
-0.011225137
-0.71272042
-0.013113335
-0.75967101
-0.012566151
-0.80987234
-0.010216709
-0.86411331
-0.0075861602
-0.9227953
-0.0055519225
-0.98594253
-0.0041167899
-1.0535605
-0.003038788
-1.1258296
-0.0021447327
-1.2031035
-0.0013562397
-1.2857527
-0.00064324981
-1.374259
-0.0056335094
-0.62591425
-0.011030612
-0.66801525
-0.014593893
-0.71123986
-0.014632207
-0.75760496
-0.012063086
-0.80802596
-0.0088411699
-0.8628583
-0.0063654256
-0.92198179
-0.0047437342
-0.98531558
-0.0036333203
-1.052966
-0.0027505754
-1.1252237
-0.0019677865
-1.202492
-0.0012478704
-1.285148
-0.0005894226
-1.3736696
-0.0018832477
-0.58700689
-0.010322045
-0.62662281
-0.016390343
-0.6662188
-0.017176606
-0.70869546
-0.014287411
-0.75538063
-0.010247289
-0.80661984
-0.0071605671
-0.86206316
-0.0052741109
-0.92145142
-0.004127151
-0.98482175
-0.0032850413
-1.0524315
-0.0025341459
-1.1246574
-0.001818239
-1.2019216
-0.0011460224
-1.2845914
-0.00053573833
-1.3731339
0.0031499484
-0.55083986
-0.0089570139
-0.58837192
-0.018614506
-0.62439865
-0.020458127
-0.66293728
-0.017063202
-0.70591967
-0.011871956
-0.75375596
-0.0079218614
-0.80585855
-0.005674484
-0.86166279
-0.0044848014
-0.92109377
-0.0037232346
-0.98438356
-0.0030462231
-1.0519194
-0.0023578895
-1.1241177
-0.0016769108
-1.2013907
-0.0010428728
-1.2840843
-0.00048037355
-1.3726535
0.00946741
-0.51704118
-0.0068594889
-0.55293739
-0.02136488
-0.58562154
-0.024728634
-0.62012814
-0.020610302
-0.65939018
-0.013808634
-0.703983
-0.0086442936
-0.75303353
-0.0058790207
-0.80565401
-0.0046581373
-0.86148945
-0.0040314276
-0.92078557
-0.0034867527
-0.98394303
-0.0028648952
-1.0514124
-0.0021899775
-1.1236047
-0.0015303646
-1.2009032
-0.00093456368
-1.2836301
-0.00042331584
-1.3722302
0.017077239
-0.48544993
-0.0039816145
-0.51991906
-0.024747856
-0.54955441
-0.0303035
-0.58004668
-0.025172305
-0.61556614
-0.016154306
-0.65704451
-0.0093106008
-0.70331669
-0.0058084063
-0.75310415
-0.0045523411
-0.80575981
-0.0041567969
-0.86136408
-0.003831571
-0.92044075
-0.003332964
-0.98347496
-0.0026915608
-1.0509109
-0.0020090935
-1.1231259
-0.0013720742
-1.2004657
-0.00082116641
-1.2832323
-0.00036599893
-1.3718642
0.025887763
-0.45584313
-0.00017768988
-0.48925385
-0.028828914
-0.515838
-0.037427556
-0.54243035
-0.031025933
-0.57419305
-0.019030308
-0.61269014
-0.0098914918
-0.65646362
-0.0053647499
-0.70376035
-0.0040436677
-0.75361282
-0.004017006
-0.8058996
-0.0040312571
-0.8611644
-0.003748974
-0.92002474
-0.0031896263
-0.98297689
-0.0024931725
-1.0504268
-0.0018047791
-1.1226932
-0.0012020852
-1.2000848
-0.00070587821
-1.2828924
-0.00031067651
-1.3715535
0.035777656
-0.42796778
0.0046938849
-0.46071471
-0.033711548
-0.48437122
-0.046212204
-0.50705335
-0.038404057
-0.53505223
-0.022567474
-0.57065588
-0.010355625
-0.61222601
-0.0044278934
-0.65740048
-0.0029837113
-0.7048203
-0.0034787616
-0.75415107
-0.0040661519
-0.80586471
-0.0041018412
-0.86081153
-0.0036940155
-0.91952036
-0.0030039347
-0.98246613
-0.0022518002
-1.0499798
-0.0015762939
-1.122319
-0.0010257867
-1.1997649
-0.00059366062
-1.2826094
-0.00025974014
-1.3712937
0.046556353
-0.40167009
0.010942447
-0.43421634
-0.039448777
-0.45497748
-0.056846918
-0.47373651
-0.047379282
-0.49807813
-0.026923648
-0.53069606
-0.010654158
-0.57035735
-0.0028600861
-0.61379381
-0.0012089519
-0.65917523
-0.002387134
-0.70591193
-0.0038471781
-0.75437004
-0.0044122868
-0.80555426
-0.0042378493
-0.86026769
-0.0035739858
-0.9189503
-0.0027410812
-0.98197685
-0.0019645992
-1.0495914
-0.001332014
-1.1220128
-0.00085164624
-1.1995069
-0.00048975455
-1.2823794
-0.00021517491
-1.3710786
0.057926397
-0.37566935
0.01889805
-0.4096257
-0.045666507
-0.42799861
-0.069433101
-0.4423913
-0.058043708
-0.46307208
-0.03220646
-0.49279532
-0.010744135
-0.53060608
-0.00049924388
-0.57271819
0.001466853
-0.61646962
-0.00057921777
-0.66098315
-0.0032430577
-0.70651605
-0.0046721673
-0.75411016
-0.0048538792
-0.80493823
-0.0042552957
-0.85958638
-0.0033160052
-0.91837538
-0.0023946195
-0.98154683
-0.0016431077
-1.0492804
-0.0010857636
-1.1217787
-0.00068872309
-1.1993079
-0.00039850038
-1.2821961
-0.00017824436
-1.3709003
0.069445914
-0.34980941
0.028586095
-0.38535739
-0.05134566
-0.40394654
-0.083791683
-0.41364003
-0.070552294
-0.42988271
-0.038448881
-0.45682966
-0.010664085
-0.49287537
0.0028511399
-0.53395646
0.0052599257
-0.57651126
0.0021383452
-0.61918718
-0.0021309484
-0.66209526
-0.0048397155
-0.7063485
-0.0055911569
-0.75337288
-0.0051008535
-0.80409267
-0.0040316355
-0.85887075
-0.0029080362
-0.91786196
-0.0019832671
-0.98120667
-0.001308612
-1.0490575
-0.00085266404
-1.1216147
-0.00054469787
-1.1991617
-0.00032269651
-1.2820516
-0.000149436
-1.3707509
0.080895722
-0.32475125
0.038908839
-0.36013215
-0.055106973
-0.38159608
-0.099680307
-0.38805792
-0.085231315
-0.398961
-0.045774073
-0.42255752
-0.010333824
-0.45715992
0.0072949961
-0.49731922
0.010416856
-0.53911339
0.0059919907
-0.58036491
-0.00035930855
-0.62095882
-0.004860604
-0.66207437
-0.0065175048
-0.70542215
-0.0062058866
-0.75226785
-0.0049582637
-0.80316604
-0.0035584055
-0.85822038
-0.0023850013
-0.91746023
-0.0015390572
-0.98097623
-0.00098760265
-1.0489226
-0.00064561485
-1.1215138
-0.00042485569
-1.1990596
-0.00026349787
-1.2819375
-0.0001286477
-1.3706222
0.091874072
-0.30017786
0.048942196
-0.3347846
-0.058229447
-0.35700968
-0.1165891
-0.36468729
-0.10251399
-0.37077525
-0.054720943
-0.39001414
-0.0095954029
-0.42329594
0.012918613
-0.46278354
0.017174585
-0.50407695
0.011233937
-0.54435534
0.0022537032
-0.58297792
-0.0046734881
-0.62114594
-0.0076896052
-0.66090227
-0.0076982673
-0.70392977
-0.0062096917
-0.75101642
-0.0044146246
-0.80230982
-0.002894483
-0.8577109
-0.0018004428
-0.91719884
-0.0011040608
-0.98085977
-0.00070159185
-1.0488666
-0.00047346251
-1.1214652
-0.00033181595
-1.1989912
-0.00022071143
-1.2818455
-0.0001153183
-1.3705069
0.10224343
-0.27631088
0.058306694
-0.30954236
-0.062606577
-0.33040747
-0.13341997
-0.34017881
-0.12246201
-0.34473927
-0.065968648
-0.35952754
-0.0085880956
-0.39102144
0.019943447
-0.43032077
0.025623594
-0.47123255
0.018152221
-0.51099523
0.0059279599
-0.5480296
-0.0042036914
-0.58344772
-0.0091735774
-0.61966197
-0.0097201869
-0.65888035
-0.0079332741
-0.70220619
-0.0055763156
-0.74985473
-0.0035628926
-0.80164141
-0.0021230934
-0.85738825
-0.0012152052
-0.9170877
-0.00071485124
-0.98084651
-0.00046447907
-1.0488756
-0.00034063241
-1.1214564
-0.00026559852
-1.1989464
-0.00019332581
-1.2817675
-0.00010850736
-1.3703984
0.11189109
-0.25351908
0.067094933
-0.28509912
-0.06766569
-0.30448325
-0.14965878
-0.31416866
-0.14257376
-0.32006706
-0.079356903
-0.33135101
-0.0077443241
-0.36037131
0.028579948
-0.39965794
0.035859769
-0.44055695
0.027017771
-0.4800981
0.010917584
-0.51598486
-0.0033708824
-0.54886241
-0.011053543
-0.58156775
-0.012445712
-0.61693644
-0.010302645
-0.65651098
-0.0071737036
-0.7006088
-0.0044563456
-0.74896128
-0.0025326365
-0.80123187
-0.0013308276
-0.85727263
-0.00068645067
-0.9171161
-0.00039251102
-0.98091848
-0.00028288579
-1.0489333
-0.00024748757
-1.1214745
-0.00022409313
-1.1989156
-0.00017966259
-1.2816963
-0.00010705119
-1.3702914
0.12067621
-0.23204737
0.075175543
-0.26159969
-0.072896515
-0.27986829
-0.16519232
-0.2889497
-0.1606836
-0.29605881
-0.093876452
-0.30554751
-0.0075183959
-0.33157694
0.038807284
-0.37059865
0.04808187
-0.41188004
0.037948415
-0.45148759
0.017579957
-0.48676047
-0.002049098
-0.51730664
-0.013427892
-0.54648806
-0.016090828
-0.57792264
-0.013528098
-0.61371099
-0.0093608274
-0.65432386
-0.0056635536
-0.6994016
-0.0030577538
-0.74843616
-0.0014522923
-0.80111041
-0.00060257835
-0.85735651
-0.00024656592
-0.91726205
-0.00014641287
-0.98105495
-0.00015741395
-1.0490234
-0.00019135027
-1.1215073
-0.00020405237
-1.1988912
-0.00017649776
-1.2816269
-0.00010989106
-1.3701815
0.12855598
-0.21205422
0.082485711
-0.23935754
-0.078179929
-0.25631627
-0.18012674
-0.26493387
-0.17726845
-0.27236486
-0.10833768
-0.28159758
-0.0082854468
-0.30478046
0.050349777
-0.34311943
0.062366229
-0.38488301
0.050978222
-0.42490985
0.026165237
-0.46007287
-8.0759507e-05
-0.48872881
-0.016415731
-0.5143188
-0.020917923
-0.54166096
-0.01786047
-0.57359026
-0.012315601
-0.61075621
-0.0072882071
-0.65269921
-0.003738005
-0.69872134
-0.0015778651
-0.74831059
-0.00044339924
-0.80126959
3.4508705e-06
-0.85760652
8.7604585e-05
-0.91749606
2.1900049e-05
-0.98123426
-8.3570057e-05
-1.0491312
-0.00016732772
-1.121544
-0.00020122605
-1.1988665
-0.00018328111
-1.2815535
-0.00011651318
-1.370065
0.13556531
-0.19361294
0.089023751
-0.21859226
-0.083302896
-0.23423457
-0.19428347
-0.24215954
-0.1927726
-0.24942972
-0.12189672
-0.25880582
-0.0099544379
-0.27992859
0.062795797
-0.31722648
0.07867366
-0.35942686
0.06618106
-0.40008584
0.03667006
-0.43541467
0.0027032985
-0.46285693
-0.020168046
-0.48497649
-0.02723688
-0.50799985
-0.023580192
-0.53594124
-0.016234838
-0.56967103
-0.0094422454
-0.60860218
-0.0046180576
-0.65181915
-0.0017030239
-0.69859619
-0.00018826148
-0.74856572
0.00039139669
-0.80165753
0.00046114581
-0.85798006
0.00031801141
-0.91779217
0.00012058198
-0.98143842
-5.432748e-05
-1.0492442
-0.00016823441
-1.121577
-0.00021403139
-1.1988357
-0.00019953471
-1.2814705
-0.00012563492
-1.3699393
0.14176793
-0.17671681
0.09482583
-0.19941502
-0.088145864
-0.21374929
-0.20751993
-0.22099811
-0.20706726
-0.22786488
-0.1341637
-0.23716274
-0.011881174
-0.25687908
0.075757544
-0.29289034
0.096768021
-0.33532084
0.083419739
-0.37666554
0.049063079
-0.41247886
0.006397078
-0.43910845
-0.024909993
-0.45811498
-0.035412464
-0.47680091
-0.031014164
-0.50056587
-0.021327466
-0.53084862
-0.012237715
-0.56687556
-0.0057394182
-0.60748082
-0.0018194754
-0.6517027
0.00019581656
-0.69898026
0.00095526424
-0.74912959
0.0010093405
-0.80220573
0.00076479248
-0.85842684
0.0004456048
-0.9181172
0.00015572042
-0.98164846
-6.048222e-05
-1.0493519
-0.00018857923
-1.1216024
-0.00024126041
-1.198794
-0.00021890592
-1.2813772
-0.00013610386
-1.3698032
0.14595017
-0.18856863
0.099967395
-0.18185838
-0.092624078
-0.1949368
-0.21974156
-0.20152767
-0.22015523
-0.20791014
-0.14508269
-0.21694589
-0.013499991
-0.23554392
0.088921365
-0.2700429
0.11624314
-0.31236546
0.10228917
-0.35419027
0.062989328
-0.39059179
0.010760272
-0.41684206
-0.030838038
-0.43318041
-0.045774497
-0.44775295
-0.040544791
-0.46727028
-0.027830233
-0.49406311
-0.015785089
-0.52730124
-0.0071359464
-0.56547903
-0.001907751
-0.60739254
0.00075722891
-0.65226411
0.0017450541
-0.69977005
0.0017780657
-0.74989832
0.0013998179
-0.80284075
0.00092182828
-0.85890307
0.00048462472
-0.9184461
0.00014079167
-0.98184974
-9.3236289e-05
-1.0494473
-0.00022682664
-1.1216169
-0.00027373281
-1.1987392
-0.00024129292
-1.281272
-0.00014733997
-1.3696559
0.15026631
-0.18374838
0.10447313
-0.19307437
-0.096642968
-0.17783949
-0.23089504
-0.18378331
-0.2320114
-0.1896715
-0.15470409
-0.19828874
-0.014594689
-0.2158512
0.10205664
-0.24867919
0.13633454
-0.2901343
0.12230282
-0.33237911
0.07796848
-0.36916942
0.015346588
-0.39517811
-0.038582299
-0.4090978
-0.058691168
-0.42026374
-0.052458369
-0.43583937
-0.036014875
-0.45908564
-0.020185519
-0.48966268
-0.0088275342
-0.52560965
-0.0019410967
-0.56544568
0.0015528289
-0.60818814
0.0028284268
-0.65334749
0.0028321586
-0.70082415
0.0022743599
-0.75077286
0.0015826523
-0.80350158
0.00095379257
-0.85937224
0.00045252344
-0.91875783
8.8484107e-05
-0.98203146
-0.0001473495
-1.0495267
-0.00027548014
-1.1216151
-0.00031006678
-1.1986704
-0.0002652912
-1.281154
-0.00015857766
-1.3694973
0.15460812
-0.1788624
0.10919745
-0.18847269
-0.098861617
-0.19085572
-0.24099744
-0.1677371
-0.24264687
-0.17314784
-0.16311189
-0.18126369
-0.015126284
-0.19775714
0.11499269
-0.22878725
0.15638968
-0.26873434
0.14240539
-0.31023687
0.093406852
-0.34781748
0.020257547
-0.37408038
-0.048454782
-0.38530562
-0.074549594
-0.39323937
-0.066973564
-0.40574854
-0.046086891
-0.42576736
-0.025529878
-0.45374128
-0.01080807
-0.48768214
-0.0018797255
-0.52567102
0.0026552367
-0.56654809
0.0042893737
-0.60964909
0.0042513274
-0.65476666
0.0034559626
-0.70200575
0.0024781136
-0.75166832
0.0015922157
-0.80414
0.00088821588
-0.85980793
0.00036867484
-0.91903802
9.2938331e-06
-0.9821881
-0.00021608214
-1.0495861
-0.00032890622
-1.1215963
-0.00034831719
-1.1985874
-0.00028878052
-1.2810238
-0.00016933158
-1.369328
0.15886773
-0.17400522
0.11398626
-0.18365121
-0.10025207
-0.18708224
-0.24972748
-0.18212568
-0.25216906
-0.1582149
-0.17041409
-0.16584565
-0.015172036
-0.18121794
0.12755003
-0.21031448
0.17596144
-0.248359
0.16222464
-0.28855359
0.10883215
-0.32566217
0.026103375
-0.35366331
-0.059379056
-0.36315611
-0.093156453
-0.36669876
-0.084012361
-0.37620057
-0.058051352
-0.39378408
-0.031906115
-0.41939112
-0.013030976
-0.45151838
-0.0016582797
-0.48790359
0.004146268
-0.52716205
0.0062246993
-0.56848342
0.0061310747
-0.61152883
0.0050268794
-0.65633757
0.0036701459
-0.70319778
0.0024418998
-0.75251801
0.0014697556
-0.80472154
0.00075375196
-0.86019301
0.0002501986
-0.91927893
-8.7789196e-05
-0.98231639
-0.00029180976
-1.0496232
-0.00038437991
-1.1215602
-0.00038580608
-1.1984903
-0.0003112967
-1.2808819
-0.00017928935
-1.3691487
0.16295558
-0.16929317
0.1187174
-0.17873635
-0.10095521
-0.18294808
-0.2575095
-0.17930021
-0.26243481
-0.17185993
-0.17678789
-0.1518411
-0.014874186
-0.16614349
0.13956589
-0.1932338
0.19473386
-0.22908691
0.18152475
-0.26765912
0.12400666
-0.3037281
0.033090494
-0.33264929
-0.069417644
-0.34362472
-0.1133493
-0.34296327
-0.10334978
-0.34736134
-0.071573454
-0.36267847
-0.039186516
-0.38650368
-0.015460963
-0.41696114
-0.0011747879
-0.45200187
0.0061187807
-0.4898761
0.0087406504
-0.529678
0.0085786767
-0.57093102
0.0070836798
-0.61358563
0.0052337863
-0.65790121
0.0035526039
-0.70430849
0.0022264173
-0.75327467
0.0012568936
-0.80522468
0.00057619225
-0.860519
0.00011107824
-0.9194778
-0.00019341241
-0.98241479
-0.00036927345
-1.0496383
-0.00043917254
-1.1215068
-0.00042161401
-1.19838
-0.00033209329
-1.2807291
-0.0001882017
-1.3689605
0.16680017
-0.16484329
0.12328412
-0.17385989
-0.10102203
-0.17866953
-0.26427212
-0.17618546
-0.27165407
-0.17008095
-0.18756834
-0.16107949
-0.014201539
-0.15251374
0.15091198
-0.17748958
0.21250064
-0.21100057
0.19989857
-0.24746073
0.13880437
-0.28245683
0.039873816
-0.31051142
-0.07785582
-0.32421111
-0.13414364
-0.32283038
-0.12475485
-0.3215582
-0.086541588
-0.33239321
-0.046981307
-0.35488368
-0.017975581
-0.38398906
-0.00030422862
-0.4178317
0.0086796892
-0.45456278
0.011945728
-0.49308118
0.011709821
-0.53280915
0.009734884
-0.57358222
0.0072574335
-0.61560928
0.0049846688
-0.65933328
0.0031919783
-0.70527405
0.0018928806
-0.75391065
0.0009912033
-0.80563969
0.00037638782
-0.86078431
-3.6800594e-05
-0.91963441
-0.00030015338
-0.98248391
-0.0004454313
-1.0496321
-0.00049118195
-1.1214373
-0.00045474505
-1.1982574
-0.00035072221
-1.2805665
-0.00019595341
-1.3687645
0.17034289
-0.16077044
0.12759764
-0.16915681
-0.10051502
-0.17436691
-0.26996439
-0.17297726
-0.27974709
-0.16809245
-0.19735833
-0.16029096
-0.021858512
-0.15342251
0.16161487
-0.16321663
0.22914287
-0.19413182
0.21707628
-0.22817828
0.15295736
-0.26161371
0.045715439
-0.28829845
-0.085836122
-0.30253112
-0.15465773
-0.30369702
-0.14751695
-0.30006827
-0.10369202
-0.30440777
-0.055050884
-0.32432363
-0.020283531
-0.35257573
0.0010333587
-0.38532665
0.011961871
-0.42111388
0.015945225
-0.45856227
0.015640682
-0.49701204
0.013096859
-0.53617112
0.0098414768
-0.57616627
0.0068099158
-0.61743453
0.0044070293
-0.66054833
0.0026778592
-0.70605903
0.0014966655
-0.75441611
0.00070381214
-0.80596712
0.00017145247
-0.86099256
-0.00018245359
-0.91975211
-0.00040362203
-0.98252572
-0.00051729341
-1.049606
-0.00053929558
-1.1213527
-0.0004845249
-1.1981236
-0.00036703573
-1.2803955
-0.00020250355
-1.368562
0.17353494
-0.15718635
0.13158687
-0.16475966
-0.099488082
-0.17018375
-0.27454169
-0.1697896
-0.28667873
-0.16604562
-0.20609194
-0.15935884
-0.028902015
-0.15324745
0.1636876
-0.15549525
0.24451673
-0.17859048
0.23292634
-0.20998188
0.16618093
-0.24140185
0.050865968
-0.26676424
-0.093986792
-0.28014778
-0.17386219
-0.28332666
-0.17032078
-0.2808932
-0.12321503
-0.28054527
-0.06419652
-0.29526213
-0.021988538
-0.32261862
0.0029763735
-0.35451874
0.016061088
-0.38942587
0.020841131
-0.42600978
0.020478485
-0.46340008
0.017287789
-0.50120297
0.013095755
-0.5394254
0.0091115743
-0.57846793
0.0059201236
-0.61894762
0.0036299605
-0.66150043
0.0020912287
-0.70665359
0.001083214
-0.75479552
0.00041864198
-0.8062143
-2.6322288e-05
-0.86114869
-0.00032067864
-0.91983505
-0.00050027673
-0.98254274
-0.00058354139
-1.0495617
-0.00058260412
-1.1212546
-0.00051073959
-1.1979799
-0.00038096606
-1.280217
-0.0002078742
-1.3683542
0.17634653
-0.15418723
0.13519104
-0.16079053
-0.097984047
-0.1662637
-0.27796675
-0.16675869
-0.2924147
-0.16405363
-0.21371328
-0.15842428
-0.035257264
-0.15300359
0.16592201
-0.15548187
0.25451594
-0.16549447
0.24722322
-0.19288736
0.17821385
-0.2220148
0.055400123
-0.24593601
-0.10210375
-0.25864728
-0.19154067
-0.2624693
-0.19161488
-0.26203256
-0.14383642
-0.26027181
-0.075910737
-0.26883106
-0.023228142
-0.29402253
0.0057519297
-0.32539418
0.021004464
-0.35946212
0.026736299
-0.39532103
0.026312619
-0.43184392
0.022419088
-0.46853138
0.017135782
-0.50524299
0.011983871
-0.5422977
0.0077890869
-0.58033689
0.0047703464
-0.62008801
0.0027704629
-0.66217966
0.001497903
-0.70706828
0.00068623713
-0.75506311
0.0001521786
-0.80639281
-0.00020872952
-0.86126064
-0.00044764645
-0.91988768
-0.00058847874
-0.9825378
-0.00064315231
-1.0495012
-0.00062081739
-1.1211446
-0.00053336291
-1.1978275
-0.00039254857
-1.2800323
-0.00021213397
-1.368142
-0.15186436
0.17875597
0.13836192
-0.15735811
-0.096038845
-0.16273573
-0.28021041
-0.16402004
-0.29694216
-0.16223123
-0.22017034
-0.15759657
-0.040873107
-0.15280843
0.16827625
-0.15535782
0.26461588
-0.1655818
0.26005804
-0.17832929
0.18889574
-0.20356924
0.059233458
-0.22584813
-0.11001624
-0.23802352
-0.20808638
-0.24210157
-0.21100509
-0.2430791
-0.16403228
-0.2418367
-0.090420836
-0.24576171
-0.025020922
-0.26703828
0.0096260577
-0.29789666
0.026870341
-0.33126006
0.033668255
-0.36639408
0.033213965
-0.40222238
0.02858665
-0.43801148
0.022077042
-0.47347264
0.01553139
-0.50879051
0.010082311
-0.54459092
0.0061251598
-0.5816917
0.0035272971
-0.62084484
0.0019234175
-0.66260518
0.00094554691
-0.70732759
0.00032763206
-0.75523857
-8.6273821e-05
-0.80651526
-0.00037182169
-0.86133647
-0.00056147601
-0.91991469
-0.00066734816
-0.9825136
-0.00069572263
-1.0494263
-0.00065409271
-1.1210238
-0.00055239507
-1.1976676
-0.00040189653
-1.2798426
-0.00021537234
-1.3679266
-0.15455625
0.14105381
-0.15024745
0.18072041
-0.093688525
-0.15970843
-0.28124098
-0.16170516
-0.30027161
-0.16069058
-0.22542911
-0.15697246
-0.045671454
-0.15279823
0.17074198
-0.15527417
0.27453861
-0.16528055
0.27257929
-0.17810306
0.20390113
-0.19333469
0.062572166
-0.20690795
-0.1174677
-0.21839667
-0.22359287
-0.22251704
-0.2287401
-0.22436655
-0.1828979
-0.22421348
-0.10644601
-0.22581153
-0.028537026
-0.24224561
0.014531634
-0.27194385
0.03377889
-0.3048052
0.041589214
-0.33918102
0.041240334
-0.37442045
0.035861361
-0.40949709
0.028028804
-0.44396324
0.019867213
-0.47780846
0.012880922
-0.51158912
0.0077276243
-0.54619339
0.0043534958
-0.5825179
0.0023270428
-0.62124847
0.0011566003
-0.66281623
0.00046366618
-0.70746362
1.8689457e-05
-0.75534353
-0.0002924757
-0.80659461
-0.00051439894
-0.86138354
-0.00066171876
-0.91992032
-0.00073663938
-0.98247269
-0.00074156558
-1.0493388
-0.00068229926
-1.1208939
-0.00056804715
-1.1975015
-0.00040920365
-1.2796487
-0.00021769252
-1.367709
-0.15722327
-0.091021509
-0.15246344
0.1432698
-0.14963368
0.18227638
-0.2810394
-0.15991001
-0.30242598
-0.15955079
-0.22947512
-0.15664457
-0.049577618
-0.1530663
0.17333288
-0.15538913
0.28407669
-0.16481224
0.28452162
-0.17722288
0.21829747
-0.1924994
0.077909254
-0.20867177
-0.12412638
-0.20024927
-0.23796585
-0.20402369
-0.2449053
-0.20635184
-0.20004356
-0.20722089
-0.12247248
-0.208187
-0.034207653
-0.2201409
0.019874258
-0.24758823
0.041860168
-0.28002513
0.050456965
-0.31367296
0.050382115
-0.3483228
0.044290927
-0.38285001
0.035085813
-0.4165541
0.025110355
-0.44920638
0.016281019
-0.48120856
0.0096215971
-0.5134831
0.0052414808
-0.54708137
0.0026681572
-0.58285902
0.0012664229
-0.62135829
0.00051029017
-0.66286286
6.5832881e-05
-0.70751076
-0.00023738143
-0.75539862
-0.00046558208
-0.80664343
-0.00063694275
-0.86140832
-0.00074880207
-0.91990815
-0.00079679756
-0.98241746
-0.00078076814
-1.0492403
-0.00070584018
-1.1207561
-0.00058061031
-1.1973301
-0.00041468491
-1.2794517
-0.00021918508
-1.3674898
-0.15861795
-0.27964472
-0.15555409
-0.087930853
-0.15121653
0.14485265
-0.1498745
0.18363423
-0.30344895
-0.15888704
-0.23244231
-0.15658361
-0.052538391
-0.1536838
0.17609614
-0.15582956
0.29301416
-0.16432659
0.29560201
-0.17589264
0.2318052
-0.1907306
0.092614869
-0.20720501
-0.11561295
-0.21718521
-0.2513181
-0.18689702
-0.25954958
-0.1893794
-0.21544555
-0.19094985
-0.13752398
-0.1921694
-0.041684279
-0.20071037
0.024799573
-0.22506621
0.051131735
-0.2568598
0.060274712
-0.28984288
0.060537564
-0.3238284
0.053893758
-0.35792563
0.043317416
-0.39108161
0.031382037
-0.42282578
0.020395401
-0.45332077
0.011866593
-0.48345355
0.0061874542
-0.51442907
0.0028991065
-0.54731232
0.0012083926
-0.58280099
0.00040144443
-0.62124945
5.0396738e-07
-0.66279753
-0.00024738617
-0.70750076
-0.00044226707
-0.75542194
-0.00060930634
-0.80667106
-0.00074106125
-0.86141606
-0.00082372389
-0.91988123
-0.00084841153
-0.98234981
-0.00081388236
-1.0491323
-0.00072512512
-1.1206116
-0.00059035354
-1.1971544
-0.00041851119
-1.2792524
-0.00021994102
-1.3672698
-0.15880454
-0.30326236
-0.15844145
-0.27675737
-0.1544216
-0.084725791
-0.15098285
0.145961
-0.15078777
0.18465809
-0.23430106
-0.15702829
-0.054359445
-0.15476255
0.17906741
-0.15665507
0.30117022
-0.16398562
0.30549033
-0.17421491
0.24401923
-0.18810667
0.10645867
-0.2045744
-0.10603182
-0.21678614
-0.25580616
-0.21269715
-0.2728315
-0.17361511
-0.22916666
-0.17565829
-0.151136
-0.17733782
-0.050253078
-0.1836006
0.028666487
-0.20457729
0.061326431
-0.23526091
0.071030245
-0.26761533
0.071568021
-0.30087334
0.064635475
-0.33457012
0.052757883
-0.36736609
0.0387916
-0.39849118
0.025356102
-0.42778648
0.014542958
-0.45599713
0.0071964302
-0.48446253
0.002966461
-0.51449642
0.00090209835
-0.54700603
5.3699274e-05
-0.58245324
-0.00024886317
-0.62100008
-0.00037548465
-0.66266943
-0.00048073329
-0.70746229
-0.00060248004
-0.75542876
-0.00072691073
-0.80668521
-0.00082898584
-0.8614108
-0.00088774944
-0.91984189
-0.0008922819
-0.98227141
-0.00084147894
-1.0490159
-0.00074052691
-1.1204614
-0.00059754714
-1.1969754
-0.00042087349
-1.2790515
-0.00022008038
-1.3670497
-0.15845695
-0.23464865
-0.16011111
-0.3015927
-0.15853568
-0.27264328
-0.15403591
-0.081672738
-0.15144174
0.14661497
-0.15233878
0.18526361
-0.054909299
-0.15647843
0.18243844
-0.15813358
0.30841537
-0.16390022
0.31390471
-0.1724
0.25457157
-0.18476725
0.11879509
-0.20044309
-0.096257671
-0.21434855
-0.2588763
-0.213716
-0.2843113
-0.20121734
-0.24132985
-0.16145193
-0.16322614
-0.16356815
-0.05913771
-0.16845319
0.031244037
-0.18617815
0.071983727
-0.21523458
0.082679829
-0.24691049
0.083355483
-0.27940279
0.076390212
-0.31262807
0.063420078
-0.34523232
0.047438867
-0.37601336
0.03130903
-0.40444411
0.017759706
-0.43100323
0.0082883323
-0.45708903
0.0028128982
-0.48430897
0.00025258147
-0.51384691
-0.00063437359
-0.54631796
-0.0007717557
-0.58193035
-0.00069188961
-0.62068368
-0.00063042775
-0.66251974
-0.00064818785
-0.70741659
-0.00072562957
-0.75543005
-0.00082278149
-0.80669142
-0.00090317665
-0.86139537
-0.00094226263
-0.91979191
-0.00092926195
-0.98218363
-0.00086410397
-1.0488924
-0.00075249119
-1.1203065
-0.00060246532
-1.1967938
-0.00042196328
-1.2788496
-0.00021969538
-1.3668301
-0.15916372
-0.05420253
-0.16120121
-0.23355855
-0.16162462
-0.29850376
-0.15924867
-0.26743051
-0.15440973
-0.078704747
-0.15251175
0.14678793
-0.15450908
0.18536267
0.18625398
-0.16029398
0.31448647
-0.16420468
0.32067829
-0.1706738
0.2631704
-0.18099883
0.12919349
-0.19516565
-0.086650595
-0.21005017
-0.26076576
-0.21245909
-0.29448703
-0.20354027
-0.25732069
-0.1852265
-0.17396572
-0.15071235
-0.06770293
-0.15500293
0.032557835
-0.16976699
0.082610436
-0.19680486
0.095097936
-0.22765269
0.095777203
-0.25933221
0.088979046
-0.29199163
0.075288529
-0.32449652
0.057402928
-0.35519638
0.038418034
-0.38312237
0.021661125
-0.40834553
0.0095066451
-0.43222154
0.0023804031
-0.45665654
-0.00084909761
-0.48320729
-0.0017843877
-0.51269689
-0.0016774549
-0.54541226
-0.0012847623
-0.58133748
-0.00095448604
-0.62035962
-0.00078782854
-0.66238009
-0.00076279731
-0.70737942
-0.0008194938
-0.75543333
-0.00090138667
-0.80669321
-0.00096601416
-0.86137162
-0.00098850529
-0.91973266
-0.00096017427
-0.98208756
-0.00088234268
-1.0487625
-0.00076139871
-1.1201476
-0.00060539406
-1.1966103
-0.00042190958
-1.2786474
-0.00021882488
-1.3666112
-0.16309368
0.19018394
-0.16255899
-0.05284476
-0.1643419
-0.23084127
-0.1637861
-0.29396633
-0.1605385
-0.26130174
-0.15539194
-0.075824563
-0.15405242
0.14633127
-0.15722255
0.18484281
0.3192126
-0.16502011
0.32568515
-0.16921154
0.26960946
-0.17711286
0.13731545
-0.18912079
-0.077731279
-0.20408496
-0.26116929
-0.20964664
-0.30325533
-0.2036908
-0.27171552
-0.18914544
-0.19413825
-0.16505396
-0.075677328
-0.14273796
0.032822
-0.15526709
0.092804851
-0.1799614
0.10807037
-0.20977729
0.1086881
-0.24056359
0.10223383
-0.272587
0.088277
-0.3049801
0.068752625
-0.33584622
0.046862927
-0.36364127
0.026424642
-0.38788588
0.010933507
-0.40977239
0.001622276
-0.43146342
-0.0025252006
-0.45498044
-0.0035411217
-0.48145055
-0.0030966416
-0.51127771
-0.0022588148
-0.5444382
-0.0015312118
-0.58076075
-0.0010735607
-0.62007388
-0.00087053779
-0.66227235
-0.00083787564
-0.70736104
-0.00089170403
-0.75544302
-0.00096682643
-0.80669239
-0.0010194566
-0.86134067
-0.0010276668
-0.91966517
-0.00098579539
-0.98198411
-0.00089670924
-1.0486272
-0.00076761688
-1.1199853
-0.00060657287
-1.1964257
-0.00042083441
-1.2784454
-0.00021751315
-1.3663937
-0.16637342
0.32249234
-0.16580375
0.19342871
-0.16682718
-0.050359473
-0.16803988
-0.22658749
-0.16639324
-0.2881116
-0.16228603
-0.25440765
-0.15678451
-0.073092471
-0.15602494
0.14513366
-0.16038681
0.18358076
0.32885135
-0.16818631
0.27377173
-0.17337382
0.14294895
-0.18274637
-0.069899865
-0.1969522
-0.26003666
-0.20521759
-0.31054574
-0.20235622
-0.28448495
-0.19092137
-0.21260881
-0.17067488
-0.098498532
-0.14223276
0.032458564
-0.14237452
0.10224441
-0.16470665
0.12133841
-0.19322944
0.12192441
-0.22301359
0.11596825
-0.25429801
0.10221836
-0.28652837
0.081546657
-0.31777413
0.056831801
-0.3458151
0.032282645
-0.36949927
0.012685499
-0.38963787
0.00050038856
-0.4086505
-0.0049287395
-0.42905988
-0.0060760485
-0.45244551
-0.0051848837
-0.47936231
-0.0037376201
-0.5097989
-0.0024513202
-0.5435181
-0.0015693778
-0.58026493
-0.0010873212
-0.6198571
-0.00090050837
-0.66220972
-0.00088580251
-0.70736694
-0.00094910727
-0.75546074
-0.0010222703
-0.80668958
-0.0010651495
-0.86130319
-0.0010608912
-0.91959007
-0.0010068064
-0.98187401
-0.00090766957
-1.0484871
-0.00077146942
-1.1198205
-0.00060622544
-1.1962403
-0.00041886946
-1.278244
-0.00021580871
-1.3661779
-0.16769888
0.33017681
-0.16724445
0.32393303
-0.16977853
0.19638006
-0.17160247
-0.04679688
-0.17211895
-0.22086177
-0.16935482
-0.2810428
-0.16437429