/*--------------------------------*- C++ -*----------------------------------*\
  =========                 |
  \\      /  F ield         | OpenFOAM: The Open Source CFD Toolbox
   \\    /   O peration     | Website:  https://openfoam.org
    \\  /    A nd           | Version:  8
     \\/     M anipulation  |
\*---------------------------------------------------------------------------*/
FoamFile
{
    version     2.0;
    format      ascii;
    class       surfaceScalarField;
    location    "399.966377299886858";
    object      phi_0;
}
// * * * * * * * * * * * * * * * * * * * * * * * * * * * * * * * * * * * * * //

dimensions      [0 3 -1 0 0 0 0];

internalField   nonuniform List<scalar> 
18180
(
-0.001658923
-1.3862292
-0.0032355029
-1.2964484
-0.0015927967
-1.3846364
-0.004720961
-1.2126257
-0.0031041648
-1.294937
-0.0015174249
-1.383119
-0.0061221417
-1.1343179
-0.0045371459
-1.2111927
-0.0029578757
-1.2934965
-0.0014138729
-1.3817051
-0.0074115129
-1.0611533
-0.0058963832
-1.1329586
-0.0043349487
-1.2098156
-0.0027592512
-1.2921512
-0.0012995686
-1.3804055
-0.0085573032
-0.99278042
-0.0071629
-1.0598868
-0.0056618776
-1.1316317
-0.0040521321
-1.2085228
-0.0025350039
-1.2909157
-0.0011756679
-1.3792298
-0.0095065096
-0.92888773
-0.0083122776
-0.99163104
-0.0069419375
-1.0586068
-0.0053170715
-1.1303668
-0.0037223307
-1.2073354
-0.0022893845
-1.289802
-0.0010545235
-1.3781753
-0.010204635
-0.86916672
-0.0093071324
-0.92789288
-0.0081705533
-0.99040243
-0.0065830735
-1.0573408
-0.0048874672
-1.1292016
-0.0033523341
-1.2062725
-0.0020481586
-1.2888084
-0.00094303661
-1.3772323
-0.010582999
-0.8133481
-0.010092619
-0.86838123
-0.0093509529
-0.92671248
-0.0078823313
-0.98910317
-0.0060680976
-1.0561601
-0.0043839426
-1.12817
-0.0029871664
-1.2053335
-0.0018262441
-1.2879252
-0.00084642116
-1.3763859
-0.010485916
-0.76127658
-0.010606375
-0.81283434
-0.010492036
-0.86724015
-0.0092553597
-0.92533945
-0.0073140007
-0.98785727
-0.0054136662
-1.0551304
-0.0038819383
-1.1272753
-0.0026517021
-1.204508
-0.001635429
-1.2871362
-0.00076534874
-1.3756205
-0.0098010621
-0.71278043
-0.010893052
-0.76098991
-0.011646394
-0.81167998
-0.01076203
-0.86573348
-0.0086815334
-0.92397192
-0.0064836705
-0.98678726
-0.0047437599
-1.0542686
-0.0034211012
-1.1265059
-0.0023671544
-1.2037763
-0.0014781928
-1.2864233
-0.00069804596
-1.3749225
-0.0082716462
-0.66765166
-0.010964579
-0.7127089
-0.012899971
-0.75973633
-0.012483832
-0.80995818
-0.010246834
-0.86416818
-0.0076409468
-0.92281464
-0.00558722
-0.9859438
-0.0041293299
-1.0535604
-0.003037782
-1.1258352
-0.0021384557
-1.203116
-0.0013502856
-1.2857711
-0.00064012385
-1.3742823
-0.0057306256
-0.62567687
-0.010611549
-0.66800469
-0.014273503
-0.71133537
-0.014495927
-0.75772424
-0.012102905
-0.80810211
-0.0089259744
-0.86288315
-0.0064235915
-0.92197827
-0.0047659704
-0.98530716
-0.0036331372
-1.052965
-0.0027412636
-1.1252324
-0.0019579033
-1.2025084
-0.0012412212
-1.28517
-0.00058658816
-1.3736958
-0.0019974105
-0.58668433
-0.0096795148
-0.62660891
-0.015915238
-0.66636296
-0.016966361
-0.70886493
-0.014341041
-0.7554861
-0.010377128
-0.80665095
-0.0072539904
-0.86205275
-0.0053126361
-0.9214316
-0.0041291997
-0.9848111
-0.0032716977
-1.0524346
-0.002519024
-1.1246713
-0.0018071958
-1.2019424
-0.0011400287
-1.2846165
-0.00053366814
-1.3731621
0.0030197849
-0.5504287
-0.0080111737
-0.58835267
-0.017914885
-0.62460926
-0.020150145
-0.66317918
-0.017138349
-0.70606763
-0.012066411
-0.75379682
-0.0080680062
-0.80583694
-0.0057379899
-0.8616274
-0.0044913478
-0.92106946
-0.0037044991
-0.9843783
-0.0030238175
-1.0519298
-0.0023409226
-1.1241376
-0.0016670159
-1.2014155
-0.001038542
-1.2841117
-0.0004793239
-1.3726828
0.0093140378
-0.51654105
-0.0055178523
-0.55292202
-0.020346851
-0.5859207
-0.024293619
-0.62046579
-0.020721987
-0.65959554
-0.014096854
-0.70403718
-0.0088685429
-0.75299628
-0.0059808246
-0.8055941
-0.0046721757
-0.86144657
-0.0040051233
-0.92076883
-0.0034541238
-0.98394799
-0.0028397042
-1.051431
-0.00217484
-1.1236297
-0.0015232855
-1.2009307
-0.00093243144
-1.2836586
-0.00042330983
-1.3722595
0.016886881
-0.48485253
-0.0021553995
-0.51990351
-0.023299688
-0.54996918
-0.029706093
-0.58050823
-0.02534206
-0.61584571
-0.01657728
-0.65711511
-0.0096470471
-0.70325868
-0.0059683262
-0.75300878
-0.0045785722
-0.80568771
-0.0041213092
-0.86133039
-0.0037854131
-0.92043754
-0.0032958925
-0.9834918
-0.0026689032
-1.0509369
-0.0019983134
-1.1231547
-0.0013686955
-1.2004944
-0.00082126745
-1.2832606
-0.00036685896
-1.3718926
0.025650441
-0.45515208
0.0022179049
-0.48922583
-0.026823632
-0.51637956
-0.036635211
-0.54304006
-0.031283681
-0.57456661
-0.019641658
-0.61278133
-0.010384815
-0.65637734
-0.0056093282
-0.70361768
-0.0040908563
-0.75349649
-0.0039678345
-0.80584118
-0.0039673583
-0.86114844
-0.0036948607
-0.92003857
-0.003155463
-0.98300524
-0.0024769052
-1.0504583
-0.00179979
-1.1227236
-0.0012024761
-1.2001132
-0.00070782098
-1.2829196
-0.00031209616
-1.3715805
0.035539243
-0.42718434
0.0077274574
-0.46066163
-0.030992647
-0.48505682
-0.045196324
-0.50781845
-0.038786688
-0.53553706
-0.02343602
-0.57077225
-0.011063538
-0.61210261
-0.0047906658
-0.657196
-0.0030642366
-0.7046443
-0.0034101919
-0.75405414
-0.0039707651
-0.80583778
-0.0040200093
-0.86082329
-0.0036413858
-0.91955265
-0.0029789993
-0.98250315
-0.0022442513
-1.0500139
-0.0015773316
-1.1223488
-0.0010293061
-1.1997918
-0.00059678755
-1.282635
-0.0002613737
-1.3713191
0.046456966
-0.4007749
0.014666113
-0.434123
-0.035838394
-0.45581588
-0.055585764
-0.47466738
-0.047924526
-0.49868061
-0.028130102
-0.53084298
-0.011649294
-0.57018649
-0.0033823987
-0.61351088
-0.0013382381
-0.658922
-0.0022934343
-0.70576105
-0.0036984992
-0.7543264
-0.0042901055
-0.80556768
-0.0041557471
-0.86030893
-0.0035347771
-0.91899687
-0.0027295861
-0.98201781
-0.0019663707
-1.0496248
-0.0013380326
-1.12204
-0.00085720364
-1.1995313
-0.00049333159
-1.282403
-0.00021671501
-1.3711024
0.057953591
-0.37477235
0.023398359
-0.40950714
-0.04100609
-0.4289553
-0.067914258
-0.44348739
-0.05879546
-0.46379644
-0.033833439
-0.49297727
-0.012116187
-0.53037608
-0.0012311123
-0.57233778
0.0012700341
-0.61611915
-0.00045286346
-0.66076257
-0.0030176211
-0.70644193
-0.0044882313
-0.75412828
-0.0047294444
-0.80499398
-0.0041947661
-0.85964894
-0.0032982224
-0.91842824
-0.0023974235
-0.98158676
-0.0016529189
-1.04931
-0.0010950112
-1.1218022
-0.00069507189
-1.1993296
-0.00040187532
-1.2822178
-0.00017946589
-1.3709229
0.06959024
-0.34891004
0.033679788
-0.38505378
-0.045540407
-0.40497283
-0.081988885
-0.41488067
-0.071544361
-0.43073849
-0.040588253
-0.45704163
-0.012514554
-0.49257891
0.0018496347
-0.53345683
0.0049726947
-0.57604044
0.002305729
-0.61887774
-0.0018006319
-0.66197956
-0.0045585759
-0.70637159
-0.0054055578
-0.75345217
-0.0050092791
-0.80417947
-0.0040048232
-0.85894234
-0.0029127161
-0.91791295
-0.0019984824
-0.9812412
-0.001323618
-1.0490814
-0.00086308523
-1.1216342
-0.00055069166
-1.1991808
-0.00032538688
-1.2820719
-0.0001502032
-1.3707727
0.081201228
-0.32383863
0.04452555
-0.3597558
-0.047976072
-0.38261812
-0.09750506
-0.38945665
-0.086446762
-0.39997827
-0.048527571
-0.42279917
-0.012773139
-0.45678304
0.0059520374
-0.49668131
0.010012542
-0.53849668
0.0062079749
-0.57994268
0.00011042532
-0.6207888
-0.0044372403
-0.6621009
-0.0062406763
-0.70553647
-0.0060688742
-0.75239257
-0.0049183735
-0.80326592
-0.0035659511
-0.85828911
-0.0024084515
-0.91750298
-0.0015627252
-0.98100209
-0.0010042052
-1.0489402
-0.00065534646
-1.1215296
-0.00042959849
-1.1990766
-0.00026521062
-1.2819569
-0.00012889722
-1.3706438
0.092288871
-0.29933192
0.055313571
-0.33462665
-0.049612733
-0.35811914
-0.11379334
-0.36632984
-0.10389288
-0.37201053
-0.058189751
-0.39031609
-0.012751194
-0.42282111
0.011165906
-0.46199691
0.016618087
-0.50328686
0.011505948
-0.54379465
0.0029066235
-0.58273888
-0.0040510622
-0.62117498
-0.0072782469
-0.66106333
-0.0074954314
-0.70410991
-0.0061519019
-0.75115904
-0.0044271452
-0.80240473
-0.0029304783
-0.85776708
-0.0018367669
-0.91722894
-0.0011300878
-0.98087621
-0.00071686464
-1.0488787
-0.00048106377
-1.1214781
-0.00033473445
-1.199007
-0.00022130338
-1.2818645
-0.00011504563
-1.3705288
0.1027322
-0.27555333
0.065460092
-0.30947844
-0.052610913
-0.33162847
-0.12997102
-0.34194145
-0.1240207
-0.34620202
-0.070253241
-0.35994704
-0.012627223
-0.39044006
0.017713835
-0.42936904
0.024870598
-0.47024942
0.018484681
-0.51026559
0.0068148338
-0.54770286
-0.0033114515
-0.58347849
-0.0085690919
-0.61988413
-0.0094226737
-0.65913609
-0.0078515493
-0.70241027
-0.0055988706
-0.74998732
-0.0036186036
-0.8017166
-0.0021784943
-0.85742535
-0.001255743
-0.91710328
-0.00073861983
-0.98085445
-0.00047628839
-1.0488835
-0.00034519626
-1.1214676
-0.00026645373
-1.1989619
-0.00019275436
-1.2817868
-0.00010776864
-1.370421
0.1124463
-0.25285794
0.074966759
-0.28506
-0.056390066
-0.30569929
-0.14581993
-0.31577956
-0.14435265
-0.32160951
-0.08453912
-0.33191614
-0.012876224
-0.35969804
0.025796737
-0.39852297
0.03487056
-0.439369
0.027397591
-0.47916233
0.01209486
-0.51554561
-0.0021214093
-0.5488929
-0.010178323
-0.58186926
-0.012013954
-0.61729285
-0.010188988
-0.65679865
-0.0072146726
-0.70079446
-0.0045438225
-0.7490621
-0.0026174997
-0.80127759
-0.0013944536
-0.85728664
-0.00072381586
-0.91711808
-0.00041102567
-0.98091972
-0.00028996164
-1.0489387
-0.00024864104
-1.1214855
-0.00022292253
-1.1989317
-0.00017802527
-1.2817165
-0.0001059421
-1.3703151
0.12133307
-0.23148318
0.083698307
-0.26158948
-0.060385374
-0.28106469
-0.16107287
-0.29044635
-0.16259697
-0.29753524
-0.099901919
-0.30624671
-0.013939594
-0.33085277
0.035373557
-0.36927486
0.046829163
-0.41048157
0.038354758
-0.45032617
0.019101992
-0.48616947
-0.00033429294
-0.51733273
-0.01217902
-0.54689221
-0.015471818
-0.5784114
-0.01337315
-0.61410869
-0.0094324879
-0.65458083
-0.0058009492
-0.69953734
-0.0031876231
-0.74849197
-0.0015508372
-0.80112121
-0.00066230821
-0.85734815
-0.00027622487
-0.91725288
-0.00015791386
-0.98105176
-0.00015928701
-1.0490281
-0.00018916636
-1.1215192
-0.00020108418
-1.1989087
-0.00017406472
-1.2816484
-0.00010847058
-1.3702066
0.12933551
-0.21157916
0.091604743
-0.23938961
-0.064500831
-0.25747403
-0.17576103
-0.26637653
-0.17928882
-0.27375449
-0.11505457
-0.28238259
-0.016132697
-0.3040536
0.04613547
-0.34161468
0.060823711
-0.38326941
0.051402158
-0.42352897
0.028094124
-0.4593183
0.0022453575
-0.48874912
-0.014658974
-0.51485278
-0.020045767
-0.54231826
-0.017655406
-0.57412914
-0.012436087
-0.61110509
-0.0075008283
-0.65288095
-0.0039351494
-0.69878981
-0.0017271409
-0.74831567
-0.00053709434
-0.80124642
-4.4284299e-05
-0.85758009
6.8057064e-05
-0.91747886
1.7967412e-05
-0.98122902
-8.0384187e-05
-1.0491369
-0.00016227051
-1.121558
-0.00019695555
-1.1988858
-0.00017989794
-1.281577
-0.00011486954
-1.3700917
0.13647527
-0.19321668
0.098681858
-0.21865628
-0.068555899
-0.23533455
-0.18971575
-0.24351931
-0.19493867
-0.25072668
-0.12922408
-0.25958499
-0.019286015
-0.27922927
0.057649275
-0.31556741
0.076814111
-0.35760508
0.06661688
-0.39848413
0.039062511
-0.43449736
0.0058144567
-0.4628874
-0.017732269
-0.48567582
-0.026030717
-0.50886783
-0.023319154
-0.53665451
-0.016431605
-0.57013362
-0.0097644797
-0.60884144
-0.0049127743
-0.65190333
-0.0019250072
-0.69859194
-0.0003306962
-0.74852207
0.00031668715
-0.8016074
0.00042994822
-0.85794198
0.00031077795
-0.91777167
0.0001245751
-0.98143398
-4.6806791e-05
-1.0492523
-0.00016120056
-1.1215938
-0.00020826371
-1.1988574
-0.00019579827
-1.2814961
-0.00012393909
-1.3699678
0.14280712
-0.17638766
0.10496454
-0.19949936
-0.072433062
-0.21477912
-0.20278525
-0.22226505
-0.20940326
-0.22905471
-0.14208991
-0.23786085
-0.022663025
-0.25620798
0.06953826
-0.29111825
0.094569775
-0.33332307
0.083891667
-0.37487987
0.05199809
-0.41141971
0.010476564
-0.43915947
-0.021582313
-0.45903736
-0.03377616
-0.47793038
-0.030694506
-0.50149247
-0.021638128
-0.53144798
-0.012715102
-0.567183
-0.0061717182
-0.6075825
-0.0021427292
-0.65168561
-1.3451846e-05
-0.69890919
0.00084268597
-0.74904807
0.00096162149
-0.80213907
0.00075281246
-0.85838402
0.00045047634
-0.91809757
0.00016649503
-0.98164728
-4.9697097e-05
-1.0493638
-0.00017984981
-1.1216222
-0.00023480392
-1.1988184
-0.00021517138
-1.2814048
-0.00013445655
-1.3698333
0.14709893
-0.18821367
0.11052864
-0.18195176
-0.076052969
-0.19587945
-0.21487345
-0.20269092
-0.22267853
-0.20898977
-0.1535905
-0.21755412
-0.025630496
-0.23489338
0.081548259
-0.26821798
0.11369219
-0.31024067
0.10286744
-0.35229885
0.066573873
-0.38945565
0.016035674
-0.41697882
-0.02635202
-0.43438976
-0.043618194
-0.44919532
-0.040168759
-0.46845612
-0.028306549
-0.49482405
-0.016476155
-0.52768693
-0.0077557631
-0.56559896
-0.0023694945
-0.60735573
0.0004558614
-0.65215492
0.0015798005
-0.6996463
0.0017067814
-0.74979323
0.0013814812
-0.80276774
0.00092863217
-0.85886217
0.00050024549
-0.91843132
0.00015692814
-0.9818539
-8.0016213e-05
-1.0494637
-0.00021688698
-1.1216401
-0.00026729198
-1.1987663
-0.00023760806
-1.2813017
-0.00014583473
-1.3696875
0.1515202
-0.18343565
0.11531861
-0.19300364
-0.079313528
-0.1786912
-0.22591423
-0.18483867
-0.23473019
-0.19063927
-0.16377175
-0.19880853
-0.027967898
-0.21521672
0.093511373
-0.24685649
0.13346164
-0.28798743
0.12304444
-0.33041767
0.08224301
-0.36796799
0.022044453
-0.39546443
-0.032642724
-0.41068812
-0.055927982
-0.42207997
-0.052041663
-0.43732242
-0.036727652
-0.46003502
-0.021165678
-0.49013453
-0.0096955974
-0.5257471
-0.0025863501
-0.5653821
0.0011305932
-0.60803046
0.0025930409
-0.65316816
0.0027282511
-0.70066777
0.0022470577
-0.7506588
0.0015924972
-0.8034316
0.00097695268
-0.85933888
0.00047660225
-0.91875099
0.00010838372
-0.9820423
-0.00013256731
-1.049548
-0.00026535842
-1.121642
-0.00030382562
-1.1987001
-0.0002619708
-1.2811855
-0.00015730642
-1.3695302
0.1559633
-0.17859353
0.12029108
-0.18840812
-0.080788882
-0.19152829
-0.23591337
-0.16869206
-0.24555496
-0.1740139
-0.17271103
-0.18169999
-0.029637598
-0.19713883
0.10528437
-0.22698971
0.15323374
-0.26662859
0.14339582
-0.30833881
0.098432854
-0.34660751
0.028475525
-0.37439906
-0.04086913
-0.38723802
-0.071158809
-0.39545729
-0.066562695
-0.40755894
-0.047125644
-0.42692443
-0.026896581
-0.45430412
-0.011997218
-0.48783291
-0.0027613963
-0.52557205
0.0020768622
-0.56632837
0.0039617537
-0.60939918
0.0041037057
-0.65454362
0.0034164381
-0.70183715
0.0024924244
-0.75155873
0.0016263841
-0.80408104
0.00092410099
-0.85978638
0.00039854758
-0.91904116
3.1428948e-05
-0.9822063
-0.00020085491
-1.0496125
-0.00031921061
-1.1216267
-0.00034269787
-1.1986193
-0.00028598763
-1.2810569
-0.00016834856
-1.3693619
0.16031852
-0.17378042
0.12529442
-0.18359687
-0.081485711
-0.18771129
-0.24435419
-0.18308747
-0.25525859
-0.15898843
-0.18050742
-0.16621751
-0.030719036
-0.18061855
0.11671475
-0.20856922
0.17257497
-0.24633094
0.16348678
-0.28671955
0.11459581
-0.32450176
0.035742144
-0.35387413
-0.050061074
-0.36520711
-0.089195289
-0.36920155
-0.083707638
-0.37831235
-0.059536063
-0.39514852
-0.033775479
-0.42004553
-0.014628091
-0.45167324
-0.0028364271
-0.48775788
0.0033703696
-0.52686556
0.0057793166
-0.56814594
0.0059262195
-0.61122169
0.0049712855
-0.65609846
0.0036911487
-0.70303588
0.0024920686
-0.75242442
0.00152284
-0.80467977
0.00079830549
-0.86018613
0.00028330133
-0.91929303
-6.5018213e-05
-0.98234214
-0.00027714971
-1.0496545
-0.00037559853
-1.1215938
-0.0003810699
-1.1985243
-0.00030911799
-1.2809161
-0.00017863408
-1.3691832
0.16449357
-0.16911202
0.13020413
-0.17869014
-0.081556214
-0.18352636
-0.25185082
-0.18021467
-0.2654743
-0.17287176
-0.18734765
-0.1521482
-0.031368734
-0.16556781
0.12766952
-0.19157331
0.1911763
-0.22717055
0.18305504
-0.2658992
0.13048635
-0.30261008
0.043913368
-0.33267299
-0.058329988
-0.34560522
-0.10885715
-0.34554526
-0.1032366
-0.34967258
-0.073641309
-0.3642071
-0.04169013
-0.38723387
-0.017566189
-0.41710743
-0.0027151425
-0.45179453
0.0050999255
-0.48948744
0.0081485552
-0.5292348
0.00830089
-0.57052061
0.0070073987
-0.6132578
0.0052646155
-0.65767193
0.0036257022
-0.70416951
0.0023044161
-0.75320599
0.0013228051
-0.80520427
0.00062545224
-0.86052829
0.0001450005
-0.91950305
-0.00017140298
-0.98244788
-0.00035594957
-1.0496742
-0.00043173287
-1.1215431
-0.00041790133
-1.1984155
-0.00033061751
-1.2807641
-0.00018789355
-1.3689953
0.16841483
-0.16470488
0.13491235
-0.17382024
-0.081060247
-0.1791861
-0.25834654
-0.17703064
-0.27464401
-0.17104495
-0.19827816
-0.16194126
-0.031557938
-0.15195899
0.1380309
-0.17592919
0.20882177
-0.20921878
0.20171386
-0.24582936
0.14596631
-0.28137916
0.051893029
-0.31058975
-0.064890738
-0.32611224
-0.12901899
-0.32544338
-0.12478046
-0.3240014
-0.089288809
-0.33402508
-0.050251986
-0.35564525
-0.020686719
-0.38411334
-0.0022786444
-0.41754393
0.0073714829
-0.45406609
0.01117537
-0.49251425
0.011341538
-0.53227545
0.0096324736
-0.57314568
0.0073020692
-0.61529526
0.0050898625
-0.65913609
0.0033053776
-0.70517047
0.0019895395
-0.75387273
0.0010638639
-0.80564269
0.00042670038
-0.86080999
-3.694717e-06
-0.91967075
-0.00028014726
-0.98252368
-0.00043404629
-1.0496719
-0.00048529078
-1.1214757
-0.00045217024
-1.1982939
-0.00034997838
-1.280602
-0.00019599103
-1.3687993
0.17202146
-0.16067373
0.13932946
-0.16912198
-0.080067834
-0.17481265
-0.26379261
-0.17374003
-0.28268422
-0.16899044
-0.2082039
-0.16111921
-0.039910725
-0.15358847
0.14784615
-0.16177425
0.22537922
-0.19248664
0.21916475
-0.22666967
0.1607563
-0.26061936
0.059059501
-0.28854563
-0.071079146
-0.30440134
-0.14874962
-0.3063816
-0.14758889
-0.30263495
-0.10710922
-0.30618099
-0.059218308
-0.32505876
-0.023682984
-0.35264898
-0.0014488609
-0.38494312
0.010319965
-0.42049241
0.014964473
-0.45785519
0.015162695
-0.49633541
0.012961915
-0.53560489
0.0099045762
-0.57574819
0.0069588015
-0.6171642
0.0045696698
-0.66040038
0.0028179772
-0.70599891
0.0016027695
-0.75441163
0.00077764283
-0.80599363
0.0002196595
-0.86103334
-0.00015287663
-0.91979802
-0.00038644581
-0.98257129
-0.0005081906
-1.049649
-0.00053511047
-1.1213928
-0.00048314623
-1.1981608
-0.0003670187
-1.280431
-0.00020287066
-1.3685965
0.17526355
-0.15713073
0.14338307
-0.16472734
-0.078640223
-0.17054959
-0.26814811
-0.17045716
-0.28955896
-0.16686529
-0.21705836
-0.16013597
-0.047611213
-0.15341873
0.14878259
-0.15452491
0.24071181
-0.17710684
0.23529453
-0.20861642
0.1745877
-0.24050107
0.06550984
-0.2670697
-0.077622607
-0.28200217
-0.16725221
-0.28589875
-0.17046294
-0.28350755
-0.12718104
-0.28256314
-0.069402873
-0.29599642
-0.026166792
-0.32257495
-7.6342973e-05
-0.3540215
0.014041443
-0.3886646
0.019620748
-0.42514869
0.019870432
-0.46256293
0.017112621
-0.50048612
0.013182197
-0.53888251
0.0093180986
-0.57810748
0.0061497099
-0.61874424
0.0038304059
-0.66141281
0.0022443811
-0.70664052
0.0011903683
-0.75482436
0.00048889797
-0.80626287
1.7348094e-05
-0.86120356
-0.00029525294
-0.91988922
-0.00048647239
-0.982593
-0.00057692501
-1.0496072
-0.0005802244
-1.1212957
-0.0005105474
-1.1980172
-0.00038164335
-1.2802522
-0.00020854325
-1.3683879
0.17811146
-0.15417185
0.1470111
-0.16075876
-0.076826514
-0.16654105
-0.27137618
-0.16732152
-0.29523416
-0.16478195
-0.2247887
-0.15913495
-0.054570005
-0.15317718
0.14992009
-0.15455622
0.25025276
-0.16406586
0.24987181
-0.19168412
0.18721302
-0.22124175
0.071305061
-0.24629629
-0.084249898
-0.26044241
-0.18441221
-0.26484217
-0.19177446
-0.26458723
-0.1481794
-0.26250919
-0.082245209
-0.2697208
-0.028308821
-0.29385439
0.0021304662
-0.32478176
0.018575117
-0.35855517
0.025250693
-0.39429454
0.025554028
-0.43083228
0.022194175
-0.46764448
0.017249794
-0.50455371
0.012263911
-0.54182832
0.0081074249
-0.5800652
0.0050529455
-0.61996678
0.0029887776
-0.66215721
0.0016516684
-0.70710182
0.00078746809
-0.75512293
0.00021524963
-0.80646077
-0.00017160166
-0.86132722
-0.00042717715
-0.91994851
-0.00057830627
-0.98259162
-0.00063913566
-1.0495483
-0.00062018513
-1.121186
-0.00053429015
-1.1978646
-0.00039385788
-1.2800669
-0.00021307315
-1.3681749
-0.15188869
0.18054285
0.15016448
-0.15732523
-0.074671057
-0.16291422
-0.27344491
-0.16447232
-0.29969795
-0.16285773
-0.23133906
-0.1582316
-0.060728968
-0.15297599
0.15122628
-0.15448337
0.25990173
-0.1642052
0.26250285
-0.1766969
0.19844324
-0.20291434
0.076308034
-0.22624472
-0.090781401
-0.23976478
-0.20052021
-0.24433441
-0.2111083
-0.24550832
-0.16863104
-0.24413559
-0.097805194
-0.24694921
-0.03124137
-0.26678825
0.0053953579
-0.29711929
0.024002208
-0.33020885
0.031890964
-0.36519545
0.032286608
-0.40102712
0.028299908
-0.43693802
0.022220859
-0.47261554
0.015901795
-0.5081916
0.010515255
-0.54423615
0.0065173962
-0.58152965
0.0038344001
-0.6208124
0.0021414425
-0.66264698
0.0010897137
-0.70740407
0.00041773249
-0.75532541
-3.2745092e-05
-0.80659962
-0.00034206923
-0.86141232
-0.00054633071
-0.91998049
-0.00066091164
-0.98256985
-0.00069422595
-1.0494742
-0.00065511621
-1.1210652
-0.00055434512
-1.1977041
-0.00040377252
-1.2798762
-0.00021654547
-1.3679583
-0.15452396
0.15279975
-0.15030994
0.18251459
-0.072224114
-0.15977217
-0.27431683
-0.1620423
-0.30296386
-0.16120642
-0.2366713
-0.15752548
-0.066012408
-0.15294816
0.15270596
-0.15445567
0.26939845
-0.16398009
0.27485321
-0.17655555
0.21329882
-0.19155248
0.080681246
-0.20728755
-0.096996996
-0.22002912
-0.21567132
-0.22461368
-0.22880998
-0.22663274
-0.18768959
-0.22644977
-0.1146689
-0.22727188
-0.03615906
-0.24203152
0.0095912806
-0.27098417
0.030484554
-0.30360163
0.039497473
-0.33781536
0.040126589
-0.37303543
0.0354977
-0.40822491
0.028200893
-0.44291805
0.020344128
-0.47705788
0.013457889
-0.51113423
0.0082631958
-0.54598195
0.0047796425
-0.58247489
0.0026324068
-0.62130336
0.0013594497
-0.66291672
0.00059072986
-0.70757707
9.429897e-05
-0.75545245
-0.0002502598
-0.80669143
-0.00049246449
-0.86146619
-0.00065196555
-0.91998943
-0.00073384259
-0.98253023
-0.00074245659
-1.0493869
-0.00068484303
-1.1209347
-0.0005709133
-1.197537
-0.00041157713
-1.2796812
-0.00021906091
-1.3677392
-0.157175
-0.069573075
-0.15242779
0.1549176
-0.14973039
0.18406984
-0.27395496
-0.16013404
-0.30505192
-0.15995423
-0.24077055
-0.15710717
-0.070353536
-0.15318436
0.15438818
-0.15463037
0.27856029
-0.1636175
0.28666584
-0.17579272
0.22758719
-0.19084392
0.096335066
-0.2072063
-0.10253708
-0.20174747
-0.22972228
-0.20597816
-0.24497831
-0.20844534
-0.20501199
-0.20931034
-0.13132624
-0.20979243
-0.043346337
-0.22008461
0.014022858
-0.24646309
0.038156215
-0.27865583
0.04804858
-0.31215274
0.049058962
-0.34674773
0.04383343
-0.38137116
0.035278911
-0.41530293
0.025706909
-0.44828083
0.017033773
-0.48063376
0.010340798
-0.51321183
0.0058247151
-0.54702702
0.0030906495
-0.58293313
0.0015484584
-0.62149237
0.00068715876
-0.66301315
0.00017106827
-0.70765384
-0.00017826741
-0.75552445
-0.00043466491
-0.80674923
-0.00062282785
-0.86149533
-0.0007442562
-0.91997902
-0.00079740461
-0.98247528
-0.00078384956
-1.0492879
-0.00070972147
-1.1207959
-0.00058426951
-1.1973643
-0.00041747093
-1.2794828
-0.00022070349
-1.3675185
-0.15873736
-0.2723926
-0.15538806
-0.066612811
-0.15119026
0.15637747
-0.14999182
0.18541659
-0.30600074
-0.15918522
-0.24376962
-0.15695516
-0.073705021
-0.15375568
0.15633322
-0.1551294
0.28720069
-0.16327077
0.29765636
-0.17460802
0.24101383
-0.18921936
0.11124244
-0.2057513
-0.092600609
-0.21714277
-0.24272906
-0.18874069
-0.25966541
-0.19129106
-0.22062332
-0.192834
-0.1468402
-0.19379639
-0.05228964
-0.20084913
0.017787084
-0.22384883
0.047014281
-0.25532116
0.057571091
-0.28817834
0.058984008
-0.32207778
0.053326322
-0.35624063
0.043518569
-0.38961081
0.032105305
-0.42170133
0.021356064
-0.45260312
0.012816278
-0.48310924
0.0069749315
-0.51436205
0.0034766206
-0.54741299
0.0015960061
-0.58298068
0.00064456886
-0.62144978
0.00014484791
-0.66298693
-0.00016653571
-0.70766557
-0.00039997386
-0.75555914
-0.00058972163
-0.80678234
-0.00073440675
-0.86150518
-0.00082401041
-0.91995241
-0.00085211349
-0.98240702
-0.00081888754
-1.0491787
-0.00073015853
-1.12065
-0.00059465723
-1.1971871
-0.00042162019
-1.2792818
-0.00022157712
-1.367297
-0.15897439
-0.30576371
-0.15841634
-0.26936431
-0.15415648
-0.06364659
-0.15097954
0.15736519
-0.15092462
0.18641258
-0.24566341
-0.15729143
-0.075887312
-0.15477287
0.158589
-0.15601147
0.29516786
-0.16309657
0.30749448
-0.1731089
0.25319139
-0.18678559
0.12523751
-0.20321443
-0.081756571
-0.21659534
-0.24579133
-0.2140805
-0.27306253
-0.17534357
-0.23455098
-0.1773634
-0.16078953
-0.17888467
-0.062144555
-0.18394147
0.020298542
-0.20336059
0.056726807
-0.23356136
0.068071629
-0.2658217
0.069778912
-0.29897325
0.063933954
-0.33268542
0.052946681
-0.36566874
0.039640121
-0.39714563
0.026554087
-0.42689935
0.015776061
-0.4555629
0.0082458382
-0.48438015
0.0037469388
-0.51463237
0.0014287098
-0.5472457
0.00038401286
-0.58272013
-5.3558388e-05
-0.62125137
-0.00026698054
-0.66288648
-0.00042433441
-0.70764121
-0.00057645696
-0.7555724
-0.00071799525
-0.80679875
-0.00082917084
-0.86150002
-0.00089237272
-0.91991215
-0.00089869999
-0.98232721
-0.00084813169
-1.0490607
-0.00074650986
-1.1204982
-0.00060235615
-1.1970063
-0.00042423154
-1.2790792
-0.00022180429
-1.3670752
-0.15859065
-0.24604715
-0.16012649
-0.30405356
-0.15837892
-0.26514187
-0.15370936
-0.060916761
-0.1514534
0.15789397
-0.15250152
0.1869798
-0.076772537
-0.1564062
0.16137429
-0.15755816
0.30235312
-0.16319673
0.31589945
-0.17150153
0.26375318
-0.18367068
0.1376732
-0.19922127
-0.070905666
-0.21406534
-0.24737568
-0.21501099
-0.28393739
-0.20320564
-0.24690612
-0.16298843
-0.1731722
-0.16498073
-0.072038866
-0.16899036
0.021397387
-0.18504031
0.066772559
-0.21340634
0.07951268
-0.24500241
0.081335875
-0.27737866
0.075521336
-0.31056063
0.063567286
-0.34330602
0.048396296
-0.37442491
0.032766173
-0.40335772
0.019333516
-0.43045681
0.0096693307
-0.4569864
0.0038570375
-0.48449025
0.00096048045
-0.51416414
-0.00019112947
-0.54667055
-0.00051175805
-0.58226193
-0.00054889974
-0.62096945
-0.00055737884
-0.66275344
-0.00061514036
-0.70760252
-0.00071474749
-0.75557565
-0.00082351399
-0.80680441
-0.00090940544
-0.86148298
-0.00095065325
-0.9198602
-0.00093798896
-0.98223735
-0.00087211498
-1.0489351
-0.00075922616
-1.1203413
-0.00060765251
-1.1968229
-0.00042548842
-1.2788755
-0.0002214705
-1.3668537
-0.15902836
-0.076334832
-0.1612415
-0.24493214
-0.16149226
-0.30094022
-0.15894734
-0.2599039
-0.1540237
-0.058346468
-0.15253388
0.15792633
-0.15470767
0.18703392
0.16476926
-0.15980117
0.30850496
-0.16371
0.32270829
-0.17000557
0.2724054
-0.18015376
0.14813261
-0.19413009
-0.060475881
-0.20965105
-0.24775323
-0.21368779
-0.29353659
-0.2054118
-0.26239449
-0.18771727
-0.1841626
-0.15199803
-0.081383251
-0.15563635
0.021166695
-0.16875966
0.076630113
-0.19489787
0.09175465
-0.22564831
0.093544999
-0.25721153
0.087910103
-0.28976743
0.075350077
-0.32234342
0.058436003
-0.35334573
0.040143094
-0.38180183
0.023634603
-0.4076588
0.011302585
-0.43209006
0.0037639814
-0.45689334
9.347085e-05
-0.48362324
-0.0011962295
-0.51315904
-0.0013359708
-0.54584634
-0.0010996715
-0.58171115
-0.00086240253
-0.62066443
-0.00074802697
-0.66262055
-0.00075104088
-0.70756623
-0.00082213326
-0.75557703
-0.00091051015
-0.8068033
-0.00097741066
-0.86145623
-0.001000094
-0.9197981
-0.0009707954
-0.98213867
-0.00089142615
-1.0488029
-0.00076869741
-1.1201803
-0.00061083871
-1.1966376
-0.00042552539
-1.2786714
-0.00022061395
-1.3666331
-0.16271088
0.16845178
-0.16243674
-0.075139584
-0.16425109
-0.24217331
-0.16349847
-0.29638909
-0.16010247
-0.25382512
-0.1549511
-0.055929243
-0.15408716
0.15730582
-0.15745978
0.18646136
0.31344644
-0.16474266
0.32778308
-0.16878479
0.2789404
-0.17654057
0.15629092
-0.18831207
-0.050996248
-0.20360972
-0.24667732
-0.21072697
-0.30183482
-0.20538955
-0.27629812
-0.19150817
-0.20388496
-0.16799491
-0.089979451
-0.14340183
0.01993781
-0.15440747
0.085902505
-0.17803206
0.10455657
-0.20769979
0.10627554
-0.23837886
0.10093892
-0.27024035
0.088190844
-0.30260819
0.069808417
-0.33371584
0.048843989
-0.36204662
0.028854583
-0.38702181
0.013242427
-0.40959864
0.0034399466
-0.43176603
-0.0012792173
-0.45552065
-0.0027681972
-0.48205127
-0.0026542442
-0.51184076
-0.0020245196
-0.54492149
-0.0014187908
-0.58115477
-0.0010284905
-0.62038397
-0.00086028902
-0.6625113
-0.00084489213
-0.70754347
-0.00090592355
-0.75558162
-0.00098298444
-0.80679773
-0.0010352008
-0.86142112
-0.001041849
-0.91972704
-0.0009979049
-0.98203219
-0.00090659667
-1.048665
-0.00077530514
-1.1200158
-0.0006121695
-1.1964509
-0.00042448034
-1.2784676
-0.00021928947
-1.3664138
-0.16630103
0.3170366
-0.16561078
0.17162581
-0.16667914
-0.072711534
-0.16782117
-0.23785061
-0.16596418
-0.29052739
-0.16172376
-0.24705246
-0.1562894
-0.053726999
-0.15607116
0.1559172
-0.16065989
0.1851329
0.33104448
-0.16800406
0.28324057
-0.17308495
0.16194158
-0.18219123
-0.042888708
-0.19641961
-0.2442217
-0.20606534
-0.3087033
-0.20385848
-0.28856411
-0.19312356
-0.22188932
-0.17350381
-0.11279262
-0.14518174
0.018146477
-0.14161049
0.094309941
-0.1628149
0.11763001
-0.1911055
0.11937431
-0.22079856
0.11442809
-0.25186803
0.10191498
-0.28396448
0.082548396
-0.31534817
0.059027874
-0.34389972
0.035216997
-0.36840904
0.015621724
-0.38940111
0.0028737367
-0.40903244
-0.0032902155
-0.42975503
-0.0050692842
-0.45321957
-0.0046190338
-0.48008648
-0.0034472036
-0.51041808
-0.0023197711
-0.54402051
-0.0015232836
-0.58065997
-0.0010838476
-0.62016041
-0.00091624966
-0.66243994
-0.00090867594
-0.70754072
-0.00097285407
-0.75559175
-0.0010442687
-0.80678866
-0.0010843991
-0.86137857
-0.0010770802
-0.91964787
-0.0010200232
-0.98191876
-0.00091811365
-1.0485222
-0.00077939175
-1.1198486
-0.00061188139
-1.1962635
-0.00042249633
-1.2782644
-0.00021755306
-1.3661962
-0.16776785
0.33251129
-0.16738063
0.31880646
-0.16974798
0.17469465
-0.1714366
-0.069096106
-0.17177382
-0.23204096
-0.16878867
-0.28346248
-0.16369119
-0.23965067