/*--------------------------------*- C++ -*----------------------------------*\
  =========                 |
  \\      /  F ield         | OpenFOAM: The Open Source CFD Toolbox
   \\    /   O peration     | Website:  https://openfoam.org
    \\  /    A nd           | Version:  8
     \\/     M anipulation  |
\*---------------------------------------------------------------------------*/
FoamFile
{
    version     2.0;
    format      ascii;
    class       volScalarField;
    location    "399.966377299886858";
    object      pMean;
}
// * * * * * * * * * * * * * * * * * * * * * * * * * * * * * * * * * * * * * //

dimensions      [0 2 -2 0 0 0 0];

internalField   nonuniform List<scalar> 
9200
(
0.00033147528
0.00034806959
0.00079108623
0.00036589345
0.00082650889
0.0012827074
0.00039690705
0.0008700031
0.0013373544
0.001697732
0.00043633061
0.00093870098
0.0014106365
0.0017666835
0.0020801197
0.00048583922
0.0010243671
0.0015212453
0.0018644667
0.0021619447
0.0024015191
0.00054600174
0.0011256837
0.0016586406
0.0020092292
0.0022820615
0.0024930014
0.0026666914
0.00061488897
0.0012429691
0.0018184042
0.0021912282
0.0024571581
0.0026311253
0.0027655342
0.0028755863
0.00068892043
0.0013745028
0.002002855
0.0024054194
0.002677658
0.0028301885
0.0029186117
0.0029790426
0.0030301663
0.00076402657
0.0015194329
0.0022137456
0.0026527632
0.002936101
0.0030819446
0.0031374029
0.0031432351
0.0031356935
0.003134506
0.00084763172
0.001681218
0.0024543423
0.0029292921
0.0032322673
0.0033765229
0.0034150446
0.0033760705
0.0033073117
0.0032395195
0.0031924302
0.0009466035
0.0018647999
0.0027206565
0.0032333078
0.0035602673
0.003713036
0.0037394661
0.0036728614
0.0035491153
0.0034148371
0.0032942722
0.0032097421
0.0010605956
0.0020615759
0.0030020864
0.0035600234
0.0039169767
0.0040843493
0.0041095594
0.0040200466
0.003859472
0.0036602986
0.0034695257
0.0033057054
0.0031914767
0.0011829461
0.0022658512
0.0032939978
0.003902355
0.0042971884
0.0044859293
0.004516539
0.004417106
0.0042233208
0.0039780472
0.0037133521
0.0034770073
0.0032788966
0.0031437551
0.0013121681
0.0024681232
0.0035918232
0.004253638
0.0046927558
0.0049111585
0.0049555303
0.0048538194
0.0046409757
0.0043519722
0.0040323774
0.0037136773
0.0034422184
0.0032200399
0.003071843
0.0014364055
0.0026701765
0.0038790786
0.0046081276
0.0050941285
0.0053499145
0.0054191375
0.0053254269
0.0051017937
0.0047836453
0.0044096951
0.0040275327
0.0036660914
0.0033713311
0.0031344845
0.0029816919
0.0015228524
0.002867129
0.0041501853
0.0049507791
0.0054941407
0.0057914726
0.0058959311
0.0058234907
0.0056010471
0.0052626497
0.0048487322
0.0044010678
0.0039680615
0.0035767163
0.0032697569
0.0030283173
0.0028784341
0.0015429349
0.0030137041
0.0044008593
0.0052645093
0.0058770005
0.0062275625
0.0063751668
0.0063355082
0.0061291509
0.0057841907
0.0053394242
0.0048401451
0.004330315
0.0038598712
0.003450977
0.0031437049
0.0029068612
0.0027675474
0.0014667648
0.0030711603
0.0045871921
0.0055440176
0.0062158983
0.0066424083
0.0068473012
0.0068512462
0.0066735895
0.0063378862
0.0058771097
0.0053351831
0.0047614173
0.004202952
0.0037082807
0.0032951721
0.0029986683
0.0027757816
0.0026538218
0.0012470812
0.0030239725
0.0046603338
0.0057426304
0.0065020645
0.0070040186
0.0072952256
0.0073600908
0.0072244206
0.0069117073
0.0064511454
0.0058819565
0.005252669
0.0046173898
0.0040239992
0.0035196346
0.0031150017
0.0028405821
0.0026400411
0.0025418554
0.00087854586
0.0028667816
0.0045864956
0.0057905475
0.0066954052
0.0072992462
0.0076874685
0.0078440704
0.0077698206
0.0074958488
0.0070504371
0.0064701382
0.0058005681
0.0050958175
0.0044126548
0.0037997129
0.0032997208
0.0029167256
0.0026746934
0.0025045537
0.002435561
0.00043584673
0.002564923
0.0043151203
0.0056429876
0.0067147544
0.0075020484
0.008001812
0.0082744565
0.0082922214
0.0080778013
0.0076651479
0.0070897806
0.0063956991
0.0056359693
0.0048685304
0.0041532438
0.0035359505
0.0030550856
0.0027059692
0.0025063175
0.0023736125
0.0023385071
8.0273037e-06
0.0020866131
0.0037872403
0.0052547725
0.0065011386
0.0075262934
0.0082200761
0.0086162704
0.0087652068
0.0086399047
0.0082822946
0.0077309587
0.0070293058
0.0062295712
0.0053911355
0.0045761767
0.0038448143
0.0032394681
0.0027917672
0.0024886136
0.0023401867
0.0022511722
0.0022538782
-0.00039797267
0.0014976276
0.0029806807
0.004555116
0.0060129668
0.0072927699
0.00826042
0.0088541837
0.0091447652
0.009157017
0.0088842764
0.0083804368
0.0076914969
0.0068691825
0.0059734876
0.0050703741
0.0042239394
0.0034940345
0.002916564
0.0025162093
0.0022700111
0.002180818
0.0021405581
0.0021844331
-0.00079401475
0.00081630662
0.001961235
0.0035189994
0.0051839977
0.006756811
0.0080225639
0.0089222706
0.0094110733
0.0095823105
0.0094457657
0.0090203018
0.0083690633
0.0075454035
0.0066097547
0.0056306294
0.0046781258
0.0038183929
0.0031073347
0.0025741464
0.0022343496
0.0020553607
0.0020320558
0.0020444532
0.0021321614
-0.0011829436
4.7000117e-05
0.00079837184
0.0022258069
0.0039759217
0.0058490503
0.0074533582
0.0087021658
0.0095126254
0.0098843593
0.0099204823
0.0096250265
0.009043523
0.0082449565
0.0072912757
0.0062527739
0.0052044092
0.0042204434
0.0033660027
0.0026922187
0.0022187177
0.0019520956
0.0018490185
0.0018972278
0.0019652008
0.0020982081
-0.001558609
-0.00076901858
-0.00046882301
0.00075518074
0.0024393605
0.0045123975
0.0064860369
0.0081202007
0.0093267112
0.010022129
0.010264513
0.010150875
0.0096891895
0.0089491723
0.008005003
0.0069289991
0.00580028
0.0046998859
0.0037035513
0.002874528
0.0022558188
0.001857057
0.0016746566
0.0016549083
0.0017792616
0.0019050075
0.0020835531
-0.0019110597
-0.0016004678
-0.0017985299
-0.00084696526
0.00068152696
0.002781432
0.0050473111
0.0071156035
0.0087531242
0.0098809974
0.010442012
0.010541945
0.010265832
0.0096326751
0.0087328219
0.0076472721
0.0064591238
0.0052561217
0.004122734
0.0031351942
0.0023514334
0.0018055531
0.0014954708
0.0014072497
0.0014768565
0.0016803825
0.0018654016
0.0020890847
-0.0022326684
-0.0024249833
-0.0031482976
-0.0025314523
-0.0012357521
0.00077478771
0.0031563309
0.0056045892
0.0077308643
0.0093321106
0.010349311
0.010760778
0.010709244
0.01025676
0.0094489636
0.0083897681
0.0071702682
0.005884125
0.004625079
0.0034802889
0.0025232622
0.0018051174
0.0013485079
0.0011399981
0.0011544994
0.0013182512
0.0016021886
0.0018470778
0.0021150665
-0.0025199121
-0.0032249295
-0.0044844915
-0.0042466755
-0.0032596997
-0.0014295894
0.00093372418
0.0035851095
0.0061719015
0.0083031548
0.0098381752
0.010718889
0.010974114
0.010755676
0.010116122
0.0091313022
0.007916464
0.0065744186
0.0052072829
0.0039136609
0.0027803852
0.001876557
0.0012436944
0.00089219406
0.00079615973
0.00092035465
0.0011815507
0.0015462842
0.0018504126
0.002161233
-0.0027971927
-0.0039925925
-0.0057786336
-0.0059469619
-0.0053292645
-0.0037678
-0.0015305784
0.0011659832
0.0040527738
0.0067126135
0.0088151692
0.010257677
0.010985425
0.011073228
0.010671128
0.0098353018
0.0086731929
0.007311197
0.0058616123
0.0044341803
0.0031292592
0.0020320882
0.0012039268
0.00067562799
0.00044340084
0.00046915994
0.00070801615
0.0010685297
0.0015135553
0.001875455
0.0022271905
-0.0030762476
-0.0047823092
-0.007011168
-0.0075946678
-0.0073870113
-0.0061696844
-0.0041623144
-0.001539789
0.0014582892
0.0045148354
0.0072048282
0.0092562016
0.010587872
0.011140671
0.011044678
0.010442573
0.0094048943
0.0080707344
0.0065739326
0.0050360232
0.0035713315
0.0022808849
0.0012447481
0.00051492543
0.0001088934
8.5529258e-06
0.00016363599
0.00052035643
0.00098064133
0.0015043031
0.0019219691
0.0023124025
-0.0033290494
-0.0055999918
-0.0082516398
-0.0091650942
-0.0093858662
-0.0085683208
-0.0068824817
-0.0044484678
-0.0014760656
0.0017696917
0.0049398092
0.0076380484
0.0096303578
0.010815453
0.011171336
0.010873063
0.010057092
0.0088185696
0.0073217347
0.005707099
0.0041031044
0.0026272064
0.0013781764
0.00042869082
-0.0001811896
-0.00044868182
-0.00040647281
-0.00011615903
0.00035982574
0.00091890708
0.0015185347
0.0019894063
0.0024161298
-0.0035527127
-0.0063935187
-0.0095188096
-0.010747848
-0.011292627
-0.01090537
-0.0096143008
-0.0074744831
-0.0046494665
-0.0013749882
0.0020612458
0.0053267215
0.0080246753
0.0099206208
0.010922559
0.011060229
0.0105439
0.0095039843
0.0080719431
0.0064263436
0.0047147455
0.0030703657
0.0016114391
0.00043202909
-0.00040564206
-0.00087510695
-0.0009899635
-0.00079623779
-0.00036679324
0.00022834307
0.00088366746
0.0015559491
0.0020769811
0.0025373759
-0.0037473211
-0.0071457676
-0.010741702
-0.012371354
-0.013205248
-0.01313826
-0.012287266
-0.010531985
-0.0079708425
-0.00480156
-0.0012765337
0.0023393714
0.0056917495
0.0083446112
0.010108705
0.010890608
0.010790851
0.010042349
0.0087762635
0.0071624911
0.0053869795
0.0036028252
0.0019468282
0.00053523796
-0.0005462879
-0.0012474963
-0.0015581339
-0.0015079674
-0.0011561967
-0.00058566633
0.00012708488
0.00087497515
0.0016159341
0.0021837144
0.0026749843
-0.0039122868
-0.0078367238
-0.011894801
-0.013945541
-0.015163946
-0.015378964
-0.014849739
-0.013537846
-0.011347225
-0.0084078163
-0.0049457885
-0.0011787845
0.0026252677
0.0060116437
0.0085867508
0.010172899
0.010695687
0.01034661
0.0093560113
0.0078693581
0.0060902905
0.0042082665
0.0023797256
0.00074358001
-0.00058952547
-0.0015447815
-0.0020865696
-0.0022217476
-0.0019964977
-0.0014824182
-0.0007708232
5.6619791e-05
0.00089265693
0.001697662
0.0023084958
0.0028277217
-0.0040472013
-0.008445257
-0.012949323
-0.015437253
-0.017065997
-0.017675247
-0.017420379
-0.016426678
-0.014683189
-0.012093905
-0.0088333931
-0.0050804467
-0.0010533068
0.0028945383
0.0062805
0.0087326698
0.010079546
0.010320984
0.0097125874
0.0084754701
0.0067809092
0.0048586418
0.0028966951
0.0010558883
-0.00052711826
-0.0017499877
-0.0025515224
-0.0029125919
-0.0028581182
-0.002450068
-0.0017717737
-0.00092098334
1.6983458e-05
0.00093607172
0.0018001718
0.0024501008
0.0029942644
-0.0041529194
-0.0089544521
-0.013875642
-0.016806966
-0.018872616
-0.019910692
-0.020056777
-0.019328851
-0.017900738
-0.015754425
-0.012825726
-0.0092417303
-0.0051720345
-0.00091054276
0.0031441873
0.0064781044
0.008742302
0.0098027246
0.0097499104
0.0088744172
0.0073935061
0.0055125338
0.0034726208
0.0014620726
-0.00035654186
-0.0018516689
-0.0029328862
-0.0035544688
-0.0037157431
-0.0034599896
-0.0028641512
-0.0020218043
-0.0010354688
7.8028501e-06
0.0010042886
0.0019223064
0.0026072145
0.0031732682
-0.0042294804
-0.0093515644
-0.014649941
-0.018012098
-0.020535044
-0.022041641
-0.022631957
-0.022307349
-0.021133137
-0.019300353
-0.016808435
-0.013537822
-0.0095931761
-0.005217374
-0.00075348906
0.003352388
0.0065574607
0.0085781952
0.0093213966
0.0089667137
0.0078238331
0.0061099217
0.0040682573
0.0019400269
-8.4206346e-05
-0.0018437201
-0.0032158704
-0.0041245611
-0.0045419289
-0.0044867505
-0.0040210672
-0.0032349799
-0.0022308484
-0.001114044
2.8296879e-05
0.0010961635
0.0020626639
0.0027784825
0.0033634163
-0.0042726256
-0.0096312346
-0.015251181
-0.019018039
-0.022000115
-0.024010542
-0.025095538
-0.025227109
-0.024454831
-0.022859229
-0.020681096
-0.017841289
-0.014183919
-0.0098729448
-0.0052189328
-0.00060150434
0.0034661851
0.0064824706
0.0082120212
0.0086184316
0.0079617617
0.0065542779
0.0046268641
0.0024537475
0.0002715296
-0.0017284473
-0.0033905734
-0.0046046192
-0.0053113871
-0.005502515
-0.0052174019
-0.004535764
-0.0035596614
-0.0023978746
-0.0011569915
7.7416226e-05
0.0012103516
0.0022197187
0.0029625348
0.0035633743
-0.0097814463
-0.004275146
-0.015659398
-0.019801223
-0.023224521
-0.025752261
-0.027379862
-0.028031735
-0.027719772
-0.026522647
-0.024563199
-0.022038985
-0.018805301
-0.01473721
-0.010084508
-0.0051984178
-0.00050847033
0.00344915
0.0062271446
0.0076222068
0.0076795047
0.0067246847
0.0050621194
0.002949109
0.00067811771
-0.0015199261
-0.0034554129
-0.0049811578
-0.0060026729
-0.0064798935
-0.0064256619
-0.0059001809
-0.0049996171
-0.0038360254
-0.0025224926
-0.0011649813
0.00015390558
0.0013453291
0.0023919781
0.003157951
0.0037717745
-0.015856834
-0.0097856009
-0.004236236
-0.020337282
-0.024179456
-0.02721281
-0.029407053
-0.030642261
-0.030866982
-0.030132518
-0.028568751
-0.026243197
-0.023328279
-0.019662103
-0.015201075
-0.010250875
-0.0052042612
-0.00051773571
0.0032689601
0.0057626335
0.0067854645
0.0064957961
0.0052480602
0.0033482771
0.0010851046
-0.0012466467
-0.0034193411
-0.0052481306
-0.0065987
-0.0073945101
-0.0076170231
-0.0073015305
-0.0065286536
-0.0054090826
-0.0040627285
-0.0026048768
-0.0011391257
0.00025625322
0.0014994465
0.0025779797
0.003363293
0.0039873455
-0.020593666
-0.015835736
-0.0096429422
-0.004163016
-0.024833438
-0.028357139
-0.03111283
-0.032966796
-0.033806275
-0.03362299
-0.032525333
-0.030592351
-0.027857157
-0.024505338
-0.020411305
-0.015599116
-0.010419892
-0.0052842914
-0.00067253486
0.0028933114
0.0050528485
0.0056890538
0.0050579939
0.0035306529
0.0014202101
-0.0009545271
-0.0033061308
-0.0054096899
-0.0070889553
-0.0082259066
-0.0087648822
-0.0087104764
-0.0081213328
-0.0070972998
-0.0057615476
-0.0042391872
-0.0026458473
-0.0010809115
0.00038276546
0.0016709764
0.0027761926
0.0035770969
0.0042087932
-0.025142706
-0.020558871
-0.01559748
-0.0093690407
-0.0040627345
-0.029147434
-0.032456155
-0.034928516
-0.036428994
-0.036892201
-0.036361428
-0.03489892
-0.03255864
-0.029349874
-0.025557182
-0.021076627
-0.015983853
-0.010641247
-0.0054843918
-0.0010020459
0.0022906214
0.0040757215
0.0043219357
0.0033614847
0.0015734873
-0.00071167831
-0.0031572772
-0.005483947
-0.0074725357
-0.0089593017
-0.0098454287
-0.010098813
-0.0097488497
-0.0088774005
-0.0076018209
-0.0060552938
-0.0043656581
-0.0026466981
-0.00099208156
0.00053165877
0.001858221
0.0029850838
0.0037980846
0.0044349452
-0.029530506
-0.02509847
-0.020234087
-0.015150963
-0.0089756113
-0.0039367946
-0.033391955
-0.036478992
-0.038645344
-0.039814197
-0.039963248
-0.039084932
-0.037219954
-0.034396459
-0.030714574
-0.026514738
-0.021716708
-0.016403116
-0.010959808
-0.0058339206
-0.0015357163
0.0014397523
0.002818054
0.0026792224
0.0014049831
-0.0006167489
-0.0030351888
-0.0055068497
-0.0077616271
-0.0095882497
-0.010839921
-0.011439935
-0.011382197
-0.010721877
-0.0095633237
-0.0080390785
-0.0062895777
-0.0044429436
-0.002609039
-0.00087450186
0.00070107362
0.0020595431
0.0032031232
0.0040250196
0.0046648242
-0.033859097
-0.029494727
-0.02470295
-0.019632276
-0.014515517
-0.0084702094
-0.0037816687
-0.037567013
-0.040399514
-0.042284772
-0.0431856
-0.043023645
-0.041764078
-0.039414832
-0.036098126
-0.031974837
-0.027435637
-0.022380019
-0.016902201
-0.011407352
-0.0063661461
-0.0023036781
0.00031777394
0.0012676964
0.00075723941
-0.00081019262
-0.0030301117
-0.0055349795
-0.0079856271
-0.010119076
-0.01173654
-0.012711291
-0.012992389
-0.012601642
-0.011620385
-0.010173762
-0.008406977
-0.0064644861
-0.0044723585
-0.0025347354
-0.00073015242
0.00088907372
0.0022732073
0.0034288672
0.0042567134
0.0048975104
-0.038123501
-0.033842988
-0.029042144
-0.02396772
-0.018788841
-0.013713202
-0.0078671705
-0.0035960916
-0.041634631
-0.044237875
-0.045907382
-0.046548284
-0.046047996
-0.044323911
-0.041466697
-0.037690546
-0.033197697
-0.028372985
-0.023111747
-0.017514066
-0.012016002
-0.0071176515
-0.0033362654
-0.0011068959
-0.00058063205
-0.0014460183
-0.003274884
-0.0056518553
-0.0081945715
-0.010573958
-0.012535072
-0.013896038
-0.014553838
-0.014486488
-0.013745021
-0.012436603
-0.010704842
-0.0087045092
-0.0065808712
-0.0044556384
-0.0024258877
-0.00056119093
0.0010936431
0.0024974734
0.003661063
0.0044921377
0.0051320815
-0.042274381
-0.038131283
-0.033345837
-0.028186932
-0.02293993
-0.01773161
-0.012765279
-0.007180574
-0.0033809552
-0.045611383
-0.048052219
-0.049519841
-0.049881908
-0.048963995
-0.046738772
-0.043408919
-0.039238849
-0.034433653
-0.029373405
-0.023944443
-0.018274617
-0.012821468
-0.0081159751
-0.0046522542
-0.0028428843
-0.0027286179
-0.0039244206
-0.0059778857
-0.0084647264
-0.010995324
-0.013250439
-0.014987395
-0.016044934
-0.016348245
-0.015906787
-0.014801565
-0.013164269
-0.011154083
-0.008931605
-0.0066401498
-0.0043949141
-0.0022849111
-0.00037003439
0.0013127374
0.0027308923
0.0038987093
0.0047303644
0.0053675536
-0.046325559
-0.042299608
-0.037590714
-0.03238322
-0.026985518
-0.02165478
-0.016485541
-0.0116945
-0.0064302002
-0.0031356241
-0.049552973
-0.051851404
-0.053106425
-0.053119102
-0.051736677
-0.049047767
-0.045301391
-0.040794664
-0.035727701
-0.030477272
-0.024916719
-0.019216489
-0.013851601
-0.0093702511
-0.0062548365
-0.0048966797
-0.0051725941
-0.0066683172
-0.0089049362
-0.011451205
-0.013916914
-0.015992535
-0.017452738
-0.018161213
-0.018075608
-0.017239045
-0.015762079
-0.013798583
-0.011520131
-0.0090889661
-0.0066442111
-0.0042928022
-0.0021146508
-0.00015912482
0.0015447844
0.0029725089
0.0041407317
0.0049701102
0.0056030193
-0.050327385
-0.046359629
-0.041709513
-0.03651933
-0.0310185
-0.025479217
-0.020141738
-0.015084306
-0.010530174
-0.0056368926
-0.0028628494
-0.053470506
-0.055623615
-0.056607751
-0.056217799
-0.05441159
-0.051309071
-0.047199083
-0.042394449
-0.037121762
-0.031707042
-0.026053723
-0.020368827
-0.015125394
-0.010896194
-0.008173244
-0.0072661186
-0.0079070765
-0.0096660389
-0.012040261
-0.014593
-0.016937044
-0.018776265
-0.019906676
-0.020222894
-0.01971809
-0.018470382
-0.016618927
-0.014336323
-0.011802621
-0.0091780806
-0.0065956738
-0.0041526015
-0.0019179706
6.9860331e-05
0.0017888981
0.0032210073
0.0043850657
0.0052097806
0.0058382313
-0.05429473
-0.050355044
-0.045712363
-0.040522971
-0.034986812
-0.029298594
-0.023703635
-0.018443505
-0.013569784
-0.0093010254
-0.0048183362
-0.0025903032
-0.057356663
-0.059318917
-0.05997773
-0.059229218
-0.057046173
-0.053579437
-0.049139921
-0.044090891
-0.038639215
-0.03310026
-0.02739302
-0.021757402
-0.016666446
-0.012733189
-0.010426434
-0.0099420997
-0.010923603
-0.012902875
-0.015366522
-0.01786922
-0.020031836
-0.021575978
-0.022324384
-0.022208154
-0.021259022
-0.019589881
-0.017366152
-0.014775642
-0.012002114
-0.0092016135
-0.0064982875
-0.0039775916
-0.0016965881
0.00031615321
0.0020432837
0.0034729701
0.0046292387
0.0054496299
0.006085243
-0.058223175
-0.054304567
-0.049633969
-0.044401146
-0.038814265
-0.033045077
-0.027264851
-0.02171196
-0.016613061
-0.011981242
-0.0080328742
-0.0040270612
-0.0023058519
-0.061172144
-0.062892154
-0.063271244
-0.062210417
-0.059698751
-0.055897585
-0.05117363
-0.04590915
-0.040316386
-0.034692459
-0.02896069
-0.023405586
-0.018500813
-0.014880469
-0.013004542
-0.012915487
-0.014208849
-0.016364314
-0.018865224
-0.021257236
-0.023175714
-0.024364541
-0.024680769
-0.024096229
-0.022683253
-0.020588371
-0.017999427
-0.015115843
-0.012120696
-0.0091633945
-0.0063557303
-0.0037694492
-0.0014510921
0.00057722241
0.0023026148
0.0037245584
0.0048749272
0.0057065981
0.0063472987
-0.062085218
-0.058206765
-0.053497937
-0.04818229
-0.042504088
-0.03664091
-0.030742175
-0.024981114
-0.019568478
-0.014698272
-0.010351496
-0.0067951218
-0.0032568093
-0.0019851667
-0.064876859
-0.066397779
-0.066546887
-0.065221944
-0.062409587
-0.058312901
-0.053329492
-0.047876528
-0.042190137
-0.036508996
-0.030779457
-0.025326322
-0.020612552
-0.017318267
-0.015898431
-0.016180482
-0.017752019
-0.020037818
-0.022516673
-0.024732414
-0.026340507
-0.027113961
-0.026950819
-0.025867566
-0.023977531
-0.021458205
-0.018516153
-0.015358049
-0.012162365
-0.0090673239
-0.0061695241
-0.0035285009
-0.0011850483
0.00084516399
0.0025615184
0.0039802485
0.005147259
0.0059783036
0.0066180763
-0.065848291
-0.06204249
-0.057305631
-0.051893549
-0.046081395
-0.040085231
-0.034058376
-0.028153518
-0.022524112
-0.017329697
-0.012736327
-0.0087676545
-0.0055707186
-0.0024529054
-0.0016312837
-0.068522804
-0.069898204
-0.069865562
-0.068306353
-0.065227316
-0.06085417
-0.055637076
-0.050032088
-0.0442846
-0.038568414
-0.032861998
-0.027513749
-0.022988202
-0.020073144
-0.019090447
-0.019732767
-0.021542132
-0.023907951
-0.026297765
-0.028267172
-0.029495912
-0.029795409
-0.029110269
-0.027504091
-0.025130374
-0.022193569
-0.018916161
-0.015505811
-0.01213132
-0.0089146821
-0.0059396065
-0.0032596405
-0.00090964463
0.0011129014
0.0028283987
0.0042800129
0.0054322082
0.0062605282
0.0068969309
-0.06956066
-0.065789584
-0.061045646
-0.055539485
-0.049575822
-0.043400091
-0.037208205
-0.031154491
-0.025369307
-0.019959281
-0.015038418
-0.010823607
-0.0072050191
-0.0042864755
-0.0016233987
-0.0012520277
-0.072177055
-0.073452754
-0.073273188
-0.071511354
-0.068182537
-0.063552234
-0.058132371
-0.052402543
-0.046620179
-0.040897311
-0.035210696
-0.02995239
-0.025655267
-0.023154063
-0.022575297
-0.023568375
-0.025569904
-0.027955205
-0.030182879
-0.03183057
-0.032610349
-0.032379998
-0.031135745
-0.028989469
-0.02613217
-0.022791909
-0.019202159
-0.015563086
-0.012028085
-0.0087048303
-0.0056724407
-0.0029780897
-0.000633868
0.0013941192
0.0031626868
0.0045917094
0.005730172
0.0065514863
0.0071839712
-0.0732968
-0.069493485
-0.06470434
-0.059114968
-0.05299536
-0.046617792
-0.04021195
-0.033975093
-0.028035558
-0.022466058
-0.017334191
-0.012802048
-0.0089260915
-0.0055693563
-0.0029611806
-0.00078603567
-0.00085796374
-0.075895497
-0.077111274
-0.076815744
-0.074868343
-0.071304127
-0.066445738
-0.060848551
-0.055018917
-0.049213375
-0.043499598
-0.037796145
-0.032631317
-0.028593524
-0.026539419
-0.026366267
-0.027683652
-0.029823789
-0.032156015
-0.0341422
-0.035388833
-0.035650803
-0.034839117
-0.033005141
-0.030309357
-0.026976537
-0.023254787
-0.019377408
-0.015529578
-0.011851014
-0.0084459925
-0.0053881673
-0.00269501
-0.00033723175
0.0017739131
0.0035084206
0.004919517
0.0060372862
0.0068517662
0.0074787936
-0.07710824
-0.073233682
-0.068326741
-0.062614799
-0.056340719
-0.049750859
-0.043104349
-0.036634863
-0.030509543
-0.024789353
-0.019496704
-0.014771935
-0.010575438
-0.0069413644
-0.0038858554
-0.0016223386
3.7472218e-05
-0.00045460817
-0.079729767
-0.080919153
-0.080523889
-0.078405406
-0.0746352
-0.069571284
-0.063814558
-0.057892607
-0.052069961
-0.046338238
-0.040580685
-0.035500141
-0.031795078
-0.030232616
-0.030473516
-0.032073654
-0.034287124
-0.036483285
-0.038141796
-0.038905934
-0.038583159
-0.037144103
-0.034698341
-0.03145325
-0.027662232
-0.02358426
-0.019440105
-0.015402497
-0.011610358
-0.0081642069
-0.0051005429
-0.0023814514
9.8167744e-05
0.0021655248
0.0038742903
0.0052562793
0.0063545572
0.0071604811
0.0077812648
-0.081045971
-0.077061357
-0.071992945
-0.066083678
-0.059614511
-0.052805244
-0.045903075
-0.039171293
-0.032811766
-0.026911551
-0.021475168
-0.016600572
-0.012210804
-0.0082493142
-0.004903305
-0.0021921049
-0.00030416891
0.00081485294
-3.84459e-05
-0.083720966
-0.084901493
-0.084424735
-0.082165067
-0.078217176
-0.07295882
-0.067053949
-0.061027792
-0.055153508
-0.049360807
-0.043510378
-0.038588029
-0.035330492
-0.034244411
-0.034906751
-0.036728369
-0.038936661
-0.040905249
-0.04214382
-0.042343397
-0.041372368
-0.039267818
-0.036199502
-0.032415756
-0.028189724
-0.02377626
-0.019385301
-0.015193908
-0.011339179
-0.0078763756
-0.0047700945
-0.0018783414
0.0005469749
0.0025822725
0.0042485028
0.0056039866
0.0066807572
0.0074776141
0.0080910218
-0.085144344
-0.081026679
-0.075756762
-0.069602754
-0.062861544
-0.055790562
-0.048618698
-0.041607536
-0.034982451
-0.028855483
-0.023243808
-0.018248685
-0.01370305
-0.0095397383
-0.005865787
-0.0028594421
-0.00053341705
0.00094998223
0.0015015931
0.00039985616
-0.087888467
-0.089080596
-0.088561538
-0.086197128
-0.082083525
-0.076636723
-0.07057358
-0.064391739
-0.05840874
-0.052510092
-0.046608464
-0.041948754
-0.039210075
-0.038608111
-0.039663087
-0.041632014
-0.043743319
-0.045384499
-0.046106479
-0.045659567
-0.04398356
-0.04118793
-0.037498894
-0.033193401
-0.028551766
-0.023822885
-0.019227213
-0.014945022
-0.011058219
-0.0075300903
-0.0041860592
-0.0013589335
0.0010269755
0.0030062777
0.0046344034
0.0059609552
0.0070158897
0.0078025184
0.0084077977
-0.089417104
-0.085159831
-0.079670133
-0.073228526
-0.066161757
-0.058751949
-0.051267023
-0.043958247
-0.037050978
-0.030664745
-0.024838262
-0.01968634
-0.015017459
-0.010686893
-0.0068100395
-0.0034835449
-0.00086707131
0.0010378266
0.0020963598
0.0020932105
0.00084972647
-0.092256848
-0.093511436
-0.092993513
-0.090543574
-0.086266791
-0.080616636
-0.074341637
-0.067906543
-0.061762445
-0.055769725
-0.049854035
-0.045593381
-0.043446427
-0.043348293
-0.044735399
-0.046763619
-0.048672861
-0.049877286
-0.049982744
-0.048811541
-0.046386494
-0.042889132
-0.038587743
-0.033774728
-0.028736339
-0.02374
-0.019016956
-0.014681349
-0.010699166
-0.0068503837
-0.0035808822
-0.00080087657
0.0015125761
0.0034424642
0.0050297629
0.0063271852
0.0073591172
0.0081348658
0.0087312584
-0.093894179
-0.089467405
-0.083764311
-0.077012782
-0.069574303
-0.061765764
-0.053893717
-0.04624425
-0.039035852
-0.032376278
-0.026298868
-0.020945925
-0.016125503
-0.011663691
-0.0076161346
-0.0040927502
-0.0011703307
0.001011133
0.0024722832
0.0030943905
0.0025734545
0.0012228473
-0.096889809
-0.09825908
-0.097768775
-0.095240726
-0.090782381
-0.0848744
-0.078281704
-0.071506131
-0.065200521
-0.059093272
-0.053279083
-0.049618515
-0.048074254
-0.048477636
-0.050110085
-0.05209447
-0.053682568
-0.054332922
-0.053721832
-0.051760497
-0.048559007
-0.044357062
-0.039446991
-0.03414229
-0.028760878
-0.023590104
-0.018785467
-0.014315118
-0.009907329
-0.0061424787
-0.0029280804
-0.00023961608
0.0020106349
0.0038881239
0.0054344698
0.006701735
0.0077100145
0.0084741005
0.0090611387
-0.098644464
-0.093969384
-0.08803028
-0.080982731
-0.073146153
-0.064891006
-0.056570366
-0.048511509
-0.040961391
-0.034011045
-0.027666695
-0.022083684
-0.017063133
-0.012443941
-0.0082640862
-0.0045745566
-0.0014668561
0.0010023667
0.0027217521
0.0037258207
0.0038789076
0.0028768283
0.0014465563
-0.10185923
-0.10337187
-0.10292737
-0.10030784
-0.095610926
-0.089336544
-0.082305513
-0.075146606
-0.068689925
-0.06250237
-0.057044848
-0.054105808
-0.053130842
-0.053989166
-0.05576627
-0.057585563
-0.058719584
-0.058693819
-0.057275929
-0.054476156
-0.050479303
-0.045562726
-0.04005195
-0.034314531
-0.028701069
-0.023411741
-0.018421353
-0.013393161
-0.0090773397
-0.0053759635
-0.0022754015
0.0003342388
0.0025179213
0.0043431427
0.0058475471
0.0070840269
0.008067929
0.0088200807
0.0093969209
-0.10373984
-0.098734545
-0.092469196
-0.085119008
-0.076897685
-0.068169574
-0.059353839
-0.050826003
-0.042872321
-0.035594921
-0.028972607
-0.023132604
-0.017880734
-0.013062844
-0.0087312249
-0.0049147854
-0.0016509264
0.00098709979
0.0029714146
0.004208443
0.0047223079
0.0043897465
0.0030344452
0.0015282085
-0.10721042
-0.10889482
-0.10849408
-0.10572869
-0.1006851
-0.093900305
-0.086353707
-0.078819549
-0.072220131
-0.06611341
-0.061249822
-0.059044336
-0.058637114
-0.059875122
-0.061674696
-0.063184491
-0.063721494
-0.062903434
-0.060605591
-0.056927307
-0.052107458
-0.046469822
-0.040421654
-0.034382507
-0.028603106
-0.02306441
-0.017349692
-0.012419649
-0.008175423
-0.004613995
-0.0016102033
0.00091683297
0.003034425
0.0048064455
0.0062682225
0.0074734181
0.0084329988
0.0091720925
0.009738245
-0.10922087
-0.1038368
-0.097144281
-0.089405988
-0.080799252
-0.071615284
-0.062281315
-0.053243357
-0.044829843
-0.037167832
-0.030228661
-0.024123308
-0.018619642
-0.013571085
-0.0090489256
-0.0050935458
-0.0017121655
0.001066598
0.0031965239
0.0046634806
0.0053698398
0.0053871529
0.0046479176
0.0030819062
0.0015127972
-0.11298122
-0.11485394
-0.11445763
-0.11144292
-0.10589247
-0.098490398
-0.090390101
-0.082518765
-0.075810009
-0.069982558
-0.065949746
-0.064445032
-0.06461608
-0.06611682
-0.067788867
-0.068826011
-0.068624218
-0.06691329
-0.063668894
-0.059060165
-0.053392214
-0.04709734
-0.040664907
-0.034401892
-0.028290468
-0.021821954
-0.016208841
-0.011357849
-0.007283852
-0.0038397154
-0.00093707837
0.0015083652
0.0035589398
0.0052771313
0.006695987
0.0078705562
0.0088038985
0.0095295965
0.010084684
-0.11511972
-0.10931692
-0.1021336
-0.093904031
-0.084834673
-0.075186997
-0.065356995
-0.055793638
-0.046888835
-0.038793479
-0.031482029
-0.025074797
-0.019303935
-0.014008075
-0.0092679645
-0.0051379523
-0.0016346642
0.0012506846
0.0034949181
0.0050740304
0.0059652025
0.0061585717
0.0057479224
0.0047099471
0.0030243022
0.0014296451
-0.11919966
-0.12124423
-0.12076501
-0.1173368
-0.1111439
-0.10306975
-0.094402588
-0.08625445
-0.079513577
-0.074303105
-0.071216773
-0.070374222
-0.071064899
-0.07267477
-0.074043733
-0.074440821
-0.073370944
-0.07066927
-0.066394543
-0.060806827
-0.054349155
-0.047574658
-0.040848688
-0.034152075
-0.026855823
-0.02048761
-0.014959573
-0.010313819
-0.0063803002
-0.0030586533
-0.00025549399
0.0021075064
0.0040904562
0.0057549358
0.0071321915
0.0082735416
0.0091799901
0.0098919035
0.010435836
-0.12146365
-0.11520763
-0.10748513
-0.098683844
-0.089056239
-0.078871066
-0.068533014
-0.058470981
-0.049069612
-0.040520676
-0.032794589
-0.026033012
-0.01996099
-0.014402996
-0.0094299915
-0.0051005106
-0.0014449213
0.0015421399
0.0038732808
0.005523503
0.0065012643
0.0068462634
0.0066135295
0.0058728034
0.0046261273
0.0028767151
0.0013079018
-0.12586853
-0.12802357
-0.12731405
-0.12331064
-0.116402
-0.10761176
-0.098388966
-0.090049566
-0.083480591
-0.079217147
-0.077060963
-0.076873006
-0.077953975
-0.079490031
-0.080366943
-0.079964854
-0.077895196
-0.074079263
-0.06869372
-0.062176842
-0.055131479
-0.047982092
-0.040698704
-0.032502816
-0.025300279
-0.019020018
-0.01373742
-0.0092581804
-0.0054714974
-0.0022697842
0.00043313075
0.0027131834
0.0046289817
0.0062421701
0.0075740582
0.0086816058
0.0095604038
0.010258447
0.010791293
-0.12826594
-0.12153288
-0.11322972
-0.10379899
-0.093527644
-0.082722739
-0.07180425
-0.061226971
-0.051359388
-0.042363068
-0.034209377
-0.02705273
-0.020630456
-0.014783869
-0.0095666747
-0.0050257655
-0.0011955422
0.0019154526
0.0043220296
0.006018343
0.0070448769
0.0074607781
0.0073612405
0.0068003458
0.0058054511