/*--------------------------------*- C++ -*----------------------------------*\
  =========                 |
  \\      /  F ield         | OpenFOAM: The Open Source CFD Toolbox
   \\    /   O peration     | Website:  https://openfoam.org
    \\  /    A nd           | Version:  8
     \\/     M anipulation  |
\*---------------------------------------------------------------------------*/
FoamFile
{
    version     2.0;
    format      ascii;
    class       volScalarField;
    location    "399.966377299886858";
    object      pPrime2Mean;
}
// * * * * * * * * * * * * * * * * * * * * * * * * * * * * * * * * * * * * * //

dimensions      [0 4 -4 0 0 0 0];

internalField   nonuniform List<scalar> 
9200
(
5.8777659e-07
5.852561e-07
3.4086943e-06
5.7182147e-07
3.3582507e-06
9.4074544e-06
5.651238e-07
3.2402965e-06
9.2649225e-06
1.7741914e-05
5.5756327e-07
3.1271804e-06
8.9506682e-06
1.7442951e-05
2.9023629e-05
5.6417783e-07
3.0009908e-06
8.6284243e-06
1.6822377e-05
2.8508356e-05
4.2894691e-05
5.8909839e-07
2.9105091e-06
8.2755243e-06
1.6162002e-05
2.7457904e-05
4.2090478e-05
5.9595918e-05
6.5216583e-07
2.8612147e-06
7.9979246e-06
1.5446856e-05
2.6306827e-05
4.0472969e-05
5.8424203e-05
7.9174693e-05
7.7996054e-07
2.8871505e-06
7.8189955e-06
1.4856879e-05
2.5049853e-05
3.8667241e-05
5.6086249e-05
7.7547087e-05
0.00010185858
1.038705e-06
3.0160411e-06
7.8159121e-06
1.4428883e-05
2.3950783e-05
3.6686859e-05
5.3444259e-05
7.4319839e-05
9.9676755e-05
0.00012785536
1.5675358e-06
3.3033818e-06
8.0550505e-06
1.4264253e-05
2.3060742e-05
3.4893993e-05
5.0541474e-05
7.0642699e-05
9.5372751e-05
0.00012500843
0.00015746927
2.5605244e-06
3.8142166e-06
8.630235e-06
1.4440777e-05
2.2504517e-05
3.3355808e-05
4.7859154e-05
6.6606659e-05
9.0441742e-05
0.0001194188
0.00015383
0.00019100526
4.3035383e-06
4.6385437e-06
9.6542203e-06
1.5050945e-05
2.2345695e-05
3.2217699e-05
4.5489552e-05
6.2844166e-05
8.5048932e-05
0.00011298892
0.00014672092
0.00018642723
0.00022884439
7.1597094e-06
5.9249231e-06
1.1334632e-05
1.6217848e-05
2.2650613e-05
3.1515163e-05
4.3601704e-05
5.9487095e-05
8.0008201e-05
0.00010598852
0.00013851345
0.00017753395
0.00022316303
0.00027136036
1.1723322e-05
7.8293048e-06
1.396764e-05
1.8169813e-05
2.3515632e-05
3.1287365e-05
4.2209572e-05
5.6738037e-05
7.551138e-05
9.945168e-05
0.00012962096
0.00016722943
0.00021218908
0.00026439285
0.0003189859
1.8556609e-05
1.0794795e-05
1.7933126e-05
2.1241849e-05
2.5110273e-05
3.1579184e-05
4.133403e-05
5.4612607e-05
7.1817553e-05
9.3658666e-05
0.00012133819
0.00015611572
0.00019942355
0.00025100889
0.00031053201
0.00037213873
2.7767667e-05
1.5630635e-05
2.3927214e-05
2.5897457e-05
2.771052e-05
3.2481434e-05
4.0955744e-05
5.3118842e-05
6.8969906e-05
8.8950985e-05
0.00011406826
0.00014579279
0.00018570863
0.0002353697
0.00029437945
0.00036198268
0.00043127168
3.9196156e-05
2.3167052e-05
3.3150713e-05
3.2834758e-05
3.1706218e-05
3.4197348e-05
4.1095302e-05
5.2166353e-05
6.6955162e-05
8.5408722e-05
0.000108262
0.0001368268
0.00017299693
0.00021861462
0.00027540894
0.00034267652
0.00041918804
0.00049681273
5.2343808e-05
3.4523274e-05
4.6861402e-05
4.3250494e-05
3.7697196e-05
3.703031e-05
4.1874404e-05
5.1725541e-05
6.5630131e-05
8.2993161e-05
0.00010403135
0.00012980212
0.00016206093
0.00020310166
0.00025511912
0.00031987293
0.00039632536
0.00048256985
0.00056919204
6.632698e-05
5.1457541e-05
6.6526719e-05
5.8458184e-05
4.6746624e-05
4.1477911e-05
4.3495962e-05
5.184661e-05
6.4926084e-05
8.1535804e-05
0.00010132727
0.0001248632
0.00015364668
0.000189858
0.00023632633
0.0002954928
0.00036915089
0.0004557356
0.0005525611
0.00064880467
8.0309928e-05
7.5173185e-05
9.4314522e-05
7.9993682e-05
6.0233743e-05
4.8421865e-05
4.6353044e-05
5.2664376e-05
6.4832856e-05
8.0931344e-05
9.9970504e-05
0.00012197071
0.00014794821
0.0001798279
0.00022036785
0.0002728679
0.00034007099
0.00042362311
0.0005213415
0.00062956379
0.00073601787
9.3903882e-05
0.00010672269
0.00013266636
0.00011015853
7.9852718e-05
5.9179453e-05
5.1201312e-05
5.4477416e-05
6.5428912e-05
8.1113833e-05
9.9811202e-05
0.00012092834
0.00014494785
0.00017328493
0.00020843177
0.00025370907
0.00031299494
0.00038918365
0.00048371081
0.00059355417
0.00071395958
0.00083115081
0.000106745
0.00014696833
0.00018452978
0.00015180147
0.00010800312
7.5474773e-05
5.9357271e-05
5.7898999e-05
6.6952064e-05
8.2111542e-05
0.00010072243
0.00012152754
0.00014442266
0.00017023997
0.00020091477
0.00023950234
0.0002900695
0.00035696227
0.00044321624
0.00054982286
0.00067278231
0.00080608683
0.00093446153
0.00011844921
0.00019323431
0.00025093118
0.00020812403
0.00014778111
9.975076e-05
7.2537477e-05
6.4271004e-05
6.984981e-05
8.4103092e-05
0.00010267282
0.00012356885
0.00014608346
0.00017044329
0.00019787608
0.00023082833
0.00027314306
0.00032960842
0.00040509074
0.00050255303
0.00062238886
0.00075940294
0.00090623841
0.00104613
0.00012873816
0.00024251048
0.00032772699
0.00028031287
0.00020261545
0.00013529129
9.3186122e-05
7.5310194e-05
7.5404604e-05
8.7396542e-05
0.00010577238
0.00012693212
0.00014963021
0.00017350134
0.00019903693
0.00022782613
0.00026305444
0.00030941387
0.00037255774
0.00045770501
0.00056762027
0.0007018187
0.00085375786
0.0010146487
0.0011662663
0.00013727265
0.00029140263
0.0004095511
0.00036481944
0.00027444445
0.00018604179
0.0001248455
9.3391437e-05
8.5408832e-05
9.3098806e-05
0.00011022133
0.00013163858
0.0001548193
0.00017897701
0.00020388988
0.00023019415
0.00026007418
0.00029755748
0.00034843789
0.00041914662
0.00051519069
0.00063883778
0.00078850585
0.00095613128
0.0011314794
0.0012949232
0.00014348725
0.00033531759
0.0004907223
0.00045588532
0.00036192573
0.00025548047
0.00017198275
0.00012222457
0.00010212978
0.00010307907
0.00011687888
0.00013779749
0.00016154425
0.00018646393
0.00021182499
0.0002373197
0.00026391028
0.00029451316
0.00033433684
0.00039031503
0.00046968147
0.0005779454
0.0007166417
0.00088280568
0.0010667504
0.0012567996
0.0014320679
0.0001468783
0.00037086917
0.00056487308
0.00054728874
0.0004595678
0.00034408057
0.00023929614
0.00016670951
0.00012923041
0.00011951554
0.00012764482
0.00014597844
0.00016982455
0.00019568525
0.00022224026
0.00024839741
0.00027385245
0.00030005097
0.0003310288
0.00037334196
0.00043522154
0.00052448335
0.00064641864
0.00080146021
0.00098505377
0.0011857871
0.0013906026
0.0015775641
0.00014727291
0.00039606388
0.0006262819
0.00063267352
0.00056057577
0.00044706585
0.00032892271
0.00023241894
0.00017185744
0.00014588522
0.00014470174
0.00015801519
0.00017993212
0.00020651708
0.0002346364
0.00026258856
0.00028890992
0.00031339279
0.00033842285
0.00036941547
0.00041458386
0.00048335119
0.00058395459
0.0007210649
0.0008937151
0.0010955346
0.0013133538
0.0015328265
0.0017312002
0.00014464575
0.00041030719
0.00067108804
0.00070568818
0.00065828265
0.00055755147
0.00043743718
0.00032305987
0.00023636094
0.00018755408
0.00017120667
0.0001761256
0.00019342862
0.00021898015
0.000248678
0.00027912998
0.00030797009
0.00033338612
0.00035573649
0.00037868288
0.00040947918
0.0004580646
0.00053499827
0.00064853635
0.00080237061
0.00099378913
0.0012144514
0.0014494671
0.001683321
0.0018927021
0.00013695325
0.00041454892
0.00069827312
0.00076165286
0.00074552424
0.00066833975
0.00055816358
0.00043720063
0.00032781635
0.00025134325
0.00021263247
0.00020324845
0.00021259046
0.00023417267
0.00026414667
0.00029741459
0.00032996403
0.00035863947
0.00038168019
0.00040044569
0.00042043171
0.0004509879
0.00050388859
0.00059050422
0.00071873583
0.000890818
0.0011020348
0.0013419515
0.0015940647
0.0018418529
0.0020617195
0.00012572279
0.0004047714
0.00070920979
0.00079933186
0.00081646061
0.0007715413
0.00068334832
0.00056846057
0.00044700285
0.00034373971
0.00027624523
0.00024482983
0.00024021699
0.00025432414
0.00028158499
0.00031696794
0.00035395691
0.00038773428
0.00041462076
0.00043334578
0.00044694432
0.00046317098
0.00049378523
0.00055221956
0.00065032305
0.00079508372
0.00098689004
0.0012187451
0.0014781096
0.0017470018
0.0020081138
0.0022378295
0.00011180834
0.00038469927
0.00069501298
0.00082016022
0.00086927302
0.00086024269
0.0008043481
0.00070854367
0.0005883664
0.0004676515
0.00036993854
0.00030852401
0.0002814905
0.0002821515
0.00030297649
0.00033774467
0.0003791848
0.00041936201
0.00045276697
0.00047554263
0.00048769123
0.0004944655
0.00050642477
0.00053776654
0.00060336518
0.00071496878
0.00087815825
0.0010910355
0.0013441532
0.0016229191
0.0019080541
0.0021817275
0.0024205514
9.5933429e-05
0.00035280281
0.00066695569
0.0008110804
0.00090535196
0.00093188455
0.00091305494
0.00084805867
0.00074329173
0.00061857025
0.00049864871
0.00040330176
0.00034423439
0.00032241839
0.0003309825
0.00036129409
0.00040506542
0.00045239121
0.00049438547
0.00052489784
0.0005406835
0.00054370815
0.00054218381
0.00054973469
0.00058298093
0.00065773062
0.00078505578
0.0009685458
0.0012036679
0.0014784214
0.0017762811
0.0020769219
0.0023622547
0.0026093628
7.9038965e-05
0.00031122423
0.00061873856
0.00079099731
0.00090617393
0.00098763202
0.0010061454
0.00097782748
0.00090158993
0.00078819333
0.00065928826
0.00053610737
0.00043858579
0.00038313826
0.00036992145
0.00039016203
0.00043247764
0.0004857722
0.0005379004
0.00057921145
0.00060349123
0.00060887875
0.00060022261
0.00058921688
0.00059277921
0.0006296077
0.00071587519
0.00086125375
0.0010668353
0.0013251384
0.0016216255
0.0019380124
0.0022532327
0.0025492016
0.0028037042
6.2252348e-05
0.0002631311
0.00055388893
0.00074634784
0.00090068422
0.0010020968
0.0010846062
0.0010938062
0.0010530789
0.00096574621
0.00084403256
0.00070640826
0.00057344588
0.00047519266
0.00042777398
0.00042820446
0.0004636836
0.00051954825
0.00058180681
0.0006363993
0.00067344637
0.00068731829
0.00067863559
0.00065589563
0.00063477049
0.00063537674
0.00067802413
0.00077846735
0.00094429761
0.0011735791
0.0014557297
0.0017737491
0.002107853
0.0024365504
0.0027420286
0.0030029863
4.6811807e-05
0.00021244337
0.00047750345
0.00068097334
0.00086692079
0.0010161559
0.0011145502
0.0011969207
0.0011930576
0.0011399807
0.0010418945
0.00090703257
0.00075155771
0.00060947346
0.00051557027
0.00048298364
0.00050214783
0.00055547901
0.00062521438
0.00069446694
0.0007478966
0.00077595554
0.00077466601
0.00074816219
0.00070938033
0.00067816852
0.0006775789
0.00072878536
0.00084631469
0.0010349322
0.0012892928
0.0015956342
0.0019346839
0.002285463
0.0026263833
0.0029401604
0.0032066005
3.39671e-05
0.00016366911
0.00039579486
0.00060055244
0.00080866988
0.00099818701
0.0011512097
0.0012429911
0.001322545
0.0013055417
0.0012406383
0.0011264608
0.0009667982
0.00079164926
0.00064623632
0.00056563205
0.00055476254
0.00059657098
0.00066917519
0.00075156195
0.00082430023
0.00087154847
0.00088491233
0.00086332717
0.00081552592
0.00075938625
0.00071897515
0.00071967082
0.00078265885
0.00092029869
0.0011339092
0.0014144169
0.0017449515
0.0021042301
0.0024704302
0.0028221928
0.0031429962
0.0034139266
2.4821578e-05
0.00012157044
0.00031609896
0.00051201865
0.00073181513
0.00095196207
0.0011517068
0.0013042138
0.0013856029
0.0014640335
0.0014342997
0.0013516671
0.0012073909
0.0010176604
0.00082873923
0.00069069765
0.00063279069
0.00064890384
0.00071607548
0.00080777658
0.00089995729
0.00097091382
0.001005614
0.00099779572
0.00095078128
0.00087873103
0.0008048349
0.00075702133
0.00076222161
0.00084057264
0.0010013763
0.0012419358
0.0015493119
0.0019036792
0.0022820992
0.002662279
0.0030234015
0.00334992
0.0036243415
2.0164778e-05
9.0537364e-05
0.00024652145
0.0004238066
0.00064350223
0.00088329204
0.0011198896
0.0013243354
0.0014736684
0.0015453608
0.001625172
0.0015763013
0.0014593992
0.0012763841
0.0010614096
0.00087045068
0.00075159041
0.00072354587
0.00077109264
0.0008647298
0.00097366624
0.0010706546
0.0011328782
0.001147379
0.0011115611
0.001034291
0.00093591366
0.00084492113
0.00079249324
0.00080606278
0.00090361551
0.001090526
0.0013596706
0.0016942309
0.0020717129
0.0024679206
0.0028604786
0.0032294026
0.003560309
0.0038372289
7.3979191e-05
2.0408627e-05
0.0001947036
0.00034547861
0.00055280499
0.00079928221
0.0010613704
0.0013076798
0.0015150946
0.0016639549
0.0017272423
0.0018035165
0.0017163724
0.0015531874
0.0013346611
0.0011065915
0.00092635885
0.00083593015
0.00084441624
0.00092647657
0.001046053
0.0011680541
0.0012626414
0.001307514
0.0012933804
0.0012227158
0.0011111162
0.00098544689
0.00087922696
0.00082593339
0.00085229021
0.0009729794
0.0011887212
0.0014876802
0.0018493201
0.0022488439
0.0026612481
0.0030644533
0.0034395713
0.0037735384
0.0040519866
0.0001666032
7.3572253e-05
2.5552364e-05
0.00028633007
0.00047052338
0.00070955143
0.00098309917
0.0012594818
0.0015148157
0.001729414
0.0018803364
0.001929329
0.0019826559
0.0018413339
0.0016337782
0.0013912051
0.0011629624
0.0010041939
0.00095148244
0.0010019883
0.0011199682
0.0012625025
0.0013907057
0.0014734374
0.0014911218
0.0014394498
0.001327602
0.0011786508
0.0010261055
0.00090777373
0.00085826664
0.00090222209
0.001049937
0.0012968799
0.0016264287
0.002014601
0.0024347631
0.0028615672
0.0032735913
0.0036532739
0.0039889875
0.0042680249
0.00025364285
0.00016537486
8.9315563e-05
3.5158428e-05
0.00040741158
0.00062603011
0.00089510475
0.0011864141
0.0014775285
0.00174773
0.0019736028
0.002123284
0.00213595
0.0021472869
0.0019513868
0.0017101819
0.001455878
0.0012388729
0.0011127299
0.0011062524
0.0012028313
0.0013553998
0.0015149653
0.001639789
0.0016993001
0.0016789926
0.001580998
0.0014225342
0.0012346393
0.0010571374
0.00093108324
0.00089077125
0.00095736243
0.0011357814
0.0014158455
0.0017762472
0.0021899709
0.0026290651
0.0030683052
0.0034872549
0.0038698764
0.004206055
0.004484777
0.00037191516
0.00025140266
0.00019107514
0.00011957136
4.83349e-05
0.0005608736
0.0008106233
0.0010990919
0.0014094443
0.0017228698
0.0020138439
0.0022490712
0.0023778151
0.0023288628
0.0022960685
0.0020558439
0.0017921354
0.0015373353
0.0013430878
0.0012607585
0.0013084511
0.0014524998
0.0016351737
0.00180257
0.0019116948
0.0019351657
0.0018656481
0.0017132147
0.0015040504
0.0012773163
0.0010783786
0.00095016488
0.00092504789
0.0010193327
0.0012317757
0.001546341
0.0019373259
0.0023752037
0.0028312614
0.0032808443
0.0037047921
0.0040887482
0.0044241591
0.0047017049
0.00052377606
0.0003689451
0.00027974899
0.00024062842
0.00016098409
6.3913879e-05
0.00074365014
0.0010124
0.0013217183
0.0016602928
0.0020038644
0.0023153956
0.0025421287
0.0026213042
0.0025063454
0.0024390567
0.0021640851
0.0018880629
0.0016436506
0.001485102
0.0014581662
0.0015655924
0.0017550688
0.0019597576
0.0021223499
0.002201098
0.002174896
0.00204517
0.0018313349
0.0015691305
0.0013055476
0.0010902973
0.00096651671
0.0009629589
0.0010898233
0.0013391008
0.0016889485
0.0021097098
0.0025699624
0.0030407915
0.0034985309
0.003925546
0.0043092719
0.0046427415
0.0049183001
0.00070544645
0.00052041473
0.00039866995
0.00033489547
0.00030817828
0.0002091492
8.0688151e-05
0.0009426546
0.001231161
0.0015716703
0.0019479709
0.0023232839
0.002640546
0.0028290488
0.0028518474
0.0026779818
0.0025854767
0.0022838743
0.0020049918
0.0017847845
0.0016762128
0.0017150433
0.0018841836
0.0021127041
0.0023272501
0.002469046
0.0025011917
0.0024115266
0.0022114429
0.0019308791
0.0016153866
0.0013189321
0.0010940094
0.00098207283
0.0010065737
0.0011705252
0.0014588217
0.001844086
0.0022932999
0.0027738019
0.0032570336
0.0037206899
0.0041488643
0.0045308516
0.0048612699
0.0051340852
0.00090303905
0.00070268563
0.00055099042
0.00045648782
0.00040975109
0.00038612324
0.00025926747
9.7454298e-05
0.0011568174
0.0014760219
0.0018581971
0.0022752823
0.0026710406
0.0029652998
0.0031053219
0.0030786292
0.0028536562
0.0027414769
0.0024207358
0.0021528203
0.0019728597
0.0019286951
0.0020410102
0.0022687127
0.0025250641
0.0027329601
0.002835668
0.0028041746
0.0026375757
0.0023584233
0.0020079415
0.0016412193
0.0013178731
0.0010912688
0.00099915052
0.0010580777
0.0012630618
0.0015918419
0.0020119973
0.0024878492
0.0029861815
0.0034793169
0.0039466332
0.0043741037
0.0047529155
0.0050792411
0.0053486169
0.00111431
0.00090148269
0.00073555166
0.00061017873
0.00053419497
0.00049508966
0.0004663578
0.00030685081
0.00011309578
0.0013956154
0.0017561531
0.0021836283
0.002633609
0.0030241115
0.0032833073
0.0033809967
0.0033107383
0.0030368378
0.0029123533
0.0025841394
0.0023445541
0.0022217208
0.0022546615
0.0024432235
0.0027206033
0.0029887883
0.0031699991
0.0032135472
0.0031013788
0.0028454253
0.0024804767
0.0020594091
0.0016459558
0.0013036167
0.0010844136
0.0010203475
0.0011196913
0.0013689253
0.001738878
0.002192742
0.0026929729
0.003206477
0.0037069348
0.00417567
0.0046006363
0.0049749172
0.005296188
0.0055614878
0.0013491475
0.0011132939
0.00093800675
0.00079768404
0.00068858252
0.00062112412
0.00058134435
0.00054154693
0.00034798595
0.00012670831
0.0016679901
0.002072952
0.0025403036
0.0030018169
0.0033748134
0.003604958
0.0036640493
0.0035516243
0.0032325345
0.0031060097
0.0027875836
0.0025949854
0.002545586
0.0026638574
0.0029257076
0.0032379452
0.0034976252
0.0036292563
0.0035928225
0.0033835825
0.0030275922
0.0025726545
0.0020831459
0.0016299265
0.0012782145
0.0010762975
0.0010484618
0.0011935898
0.0014894343
0.001900434
0.0023862009
0.0029081618
0.0034339965
0.0039391568
0.0044071116
0.0048278555
0.0051963445
0.0055116838
0.0057723267
0.0016161925
0.0013483483
0.0011536998
0.0010049221
0.00087802524
0.00077408479
0.00070652572
0.00066010984
0.00060547454
0.00037948467
0.00013759763
0.0019742144
0.0024191017
0.0029094664
0.0033716697
0.0037340501
0.0039379276
0.0039572276
0.003803601
0.0034459539
0.0033349792
0.0030458797
0.0029205228
0.002957457
0.0031643973
0.003489399
0.003815746
0.0040423935
0.0040998888
0.0039626677
0.0036414617
0.0031770807
0.0026310154
0.0020781405
0.0015945177
0.0012444894
0.0010701759
0.0010863791
0.0012818169
0.0016256853
0.0020767887
0.0025920827
0.0031327981
0.0036679946
0.0041752352
0.00464028
0.0050551892
0.0054167293
0.0057253349
0.005980792
0.0019147706
0.0016151335
0.0013932247
0.0012261306
0.001089119
0.00096254882
0.00085481057
0.0007813209
0.00072444446
0.00065306862
0.00039922077
0.0001449551
0.0023069274
0.0027785802
0.003283227
0.0037544064
0.0041091138
0.0042842298
0.0042611571
0.0040691429
0.0036877287
0.0036147397
0.0033775155
0.0033368894
0.0034690152
0.0037624433
0.0041308527
0.0044458497
0.004611535
0.0045699202
0.0043119601
0.0038658692
0.0032877856
0.0026528016
0.0020446597
0.001542147
0.0012059432
0.0010695952
0.0011369594
0.0013862111
0.0017785248
0.002267991
0.0028099278
0.0033661671
0.0039076805
0.0044144173
0.0048745287
0.005282114
0.0056356344
0.0059367643
0.0061965372
0.0022371726
0.0019122214
0.0016649412
0.0014722079
0.0013149346
0.0011740686
0.0010380363
0.00092119645
0.00083833019
0.00076865501
0.00068083059
0.00040877093
0.00014728206
0.0026526625
0.0031443267
0.0036725246
0.0041569622
0.0045016429
0.0046428312
0.004576454
0.0043568087
0.0039740431
0.0039648123
0.0038000615
0.0038589115
0.0040899708
0.0044569528
0.0048418784
0.0051172347
0.0051919455
0.0050263054
0.0046294537
0.0040482896
0.003354801
0.0026366389
0.0019842569
0.0014762124
0.0011666214
0.0010782485
0.0012029345
0.0015083608
0.0019485256
0.0024738755
0.0030391285
0.00360747
0.0041522341
0.0046559733
0.005109262
0.0055081306
0.0058526207
0.0061545962
0.0064243319
0.0025721362
0.0022316234
0.0019669313
0.0017515486
0.0015665288
0.0014007491
0.0012448521
0.0010944779
0.00096609971
0.00087166028
0.00078886247
0.00069494315
0.00040448653
0.0001466191
0.0030055899
0.0035263727
0.0040840867
0.0045807438
0.0049094012
0.0050123964
0.0049082092
0.004680179
0.0043236674
0.0044051753
0.0043313294
0.0044981906
0.0048222283
0.0052415228
0.0056122231
0.0058157471
0.0057691766
0.0054554023
0.0049041109
0.0041812616
0.0033746465
0.0025827022
0.0018997774
0.0014009863
0.0011309753
0.0010998476
0.0012868135
0.0016495596
0.0021359707
0.0026940587
0.0032789409
0.0038558442
0.0044008444
0.004899223
0.0053438987
0.0057327067
0.0060757651
0.0063838092
0.0066580178
0.0029154448
0.0025636196
0.0022909296
0.0020617158
0.0018522282
0.0016534895
0.0014667069
0.001290915
0.001124901
0.00098364921
0.00087739322
0.00079835316
0.00068433489
0.00039032063
0.00014300696
0.0033747599
0.0039313519
0.0045190363
0.0050228353
0.0053291947
0.0053949038
0.0052679905
0.0050559605
0.0047560571
0.0049545477
0.004986313
0.0052608503
0.0056643215
0.0061069463
0.0064295567
0.0065256447
0.0063276461
0.0058435748
0.0051256622
0.0042588027
0.0033455576
0.0024927507
0.0017953078
0.0013214609
0.0011036881
0.001137994
0.0013908173
0.0018107582
0.0023408449
0.0029279463
0.003528511
0.0041104142
0.0046527396
0.0051434825
0.0055777892
0.0059638047
0.0063102399
0.0066198552
0.0068975177
0.0032748385
0.0029056838
0.0026284121
0.0023942433
0.0021691055
0.0019402733
0.0017139638
0.0015017228
0.0013056834
0.0011236488
0.00097009623
0.00087720661
0.00077850439
0.000657762
0.00036535135
0.0001366307
0.0037661531
0.0043600297
0.0049740727
0.005478507
0.0057604676
0.0057990345
0.0056705345
0.0055041938
0.0052926806
0.005633215
0.0057758435
0.0061489923
0.0066113732
0.0070397197
0.0072789111
0.007229517
0.0068510215
0.0061776717
0.0052851619
0.0042766723
0.0032676228
0.0023701414
0.0016760264
0.0012431743
0.0010895261
0.0011960508
0.0015168007
0.0019925297
0.00256286
0.0031747803
0.003786935
0.0043703175
0.0049071159
0.0053879642
0.0058192342
0.0062067491
0.0065525375
0.0068626335
0.0071427281
0.0036563374
0.003264541
0.0029779644
0.0027413021
0.0025083273
0.0022575986
0.0019940211
0.001736491
0.0014998129
0.0012840123
0.0010868243
0.00095628599
0.00084256455
0.00074217514
0.00061391831
0.00033016626
0.00012800721
0.0041805837
0.0048087695
0.0054435853
0.0059451625
0.0062089123
0.0062374185
0.0061348004
0.0060472093
0.0059534567
0.0064554365
0.0067037358
0.0071603505
0.0076509822
0.0080253796
0.0081411865
0.0079083081
0.0073228626
0.0064454972
0.0053754089
0.0042326452
0.0031428521
0.0022197465
0.0015480463
0.0011720247
0.0010931836
0.0012770205
0.001666176
0.002195076
0.0028014935
0.0034336977
0.0040532781
0.0046346171
0.0051630268
0.0056417939
0.0060736433
0.0064585914
0.0068025607
0.0071119925
0.00739353
0.0040607275
0.0036459718
0.0033456371
0.0031022583
0.0028623027
0.0025960677
0.0023025525
0.002001647
0.0017159146
0.001456504
0.0012216255
0.0010570419
0.00090205641
0.00079166699
0.00068793162
0.00055382813
0.00028676142
0.00011768749
0.004614664
0.0052713439
0.0059230957
0.0064260505
0.0066849955
0.0067269644
0.0066814646
0.0067044951
0.0067580498
0.0074283019
0.0077681447
0.0082864661
0.008769629
0.0090480388
0.0089946437
0.0085425266
0.0077273433
0.0066364871
0.0053913199
0.0041267063
0.0029751811
0.0020478126
0.0014182205
0.0011140831
0.0011190651
0.001383437
0.0018399014
0.0024182832
0.0030560315
0.0037037304
0.004326467
0.004902196
0.0054309607
0.0059103811
0.0063381401
0.0067192643
0.0070601159
0.0073677573
0.0076497802
0.0044853096
0.0040517661
0.0037371006
0.003482601
0.0032307818
0.0029478774
0.0026294436
0.0022919583
0.001959195
0.0016485119
0.0013670171
0.0011746111
0.00097932442
0.00083245028
0.0007230965
0.00061696541
0.00048125438
0.0002385244
0.00010598083
0.0050611093
0.0057416114
0.0064140621
0.0069296155
0.0072033623
0.0072864374
0.0073324364
0.0074975695
0.0077152261
0.0085499176
0.008964599
0.0095226513
0.009950431
0.010087578
0.0098156991
0.0091128749
0.0080501133
0.0067421698
0.005330185
0.0039611721
0.0027703959
0.0018617988
0.0012939221
0.0010753472
0.0011711057
0.0015173236
0.0020385484
0.0026617733
0.0033255474
0.0039836821
0.0046052129
0.0051855325
0.0057162263
0.0061903991
0.006612708
0.0069885326
0.0073249833
0.0076297094
0.0079113184
0.0049222946
0.0044803019
0.0041555275
0.0038881571
0.0036186207
0.003312706
0.002966449
0.0025966279
0.0022235844
0.0018641329
0.0015281986
0.0013030746
0.0010714412
0.00088751421
0.00074626127
0.00063860955
0.00053386517
0.00040176174
0.00019007847
9.3134085e-05
0.0055117188
0.0062190039
0.0069234885
0.0074684995
0.0077810149
0.007937609
0.008110338
0.0084404181
0.0088261958
0.0098182574
0.01029668
0.010857482
0.011173186
0.01111703
0.010581347
0.0096007731
0.0082788785
0.0067565227
0.0051919313
0.0037406643
0.0025360075
0.0016701255
0.0011827553
0.0010614488
0.0012527361
0.0016802618
0.0022622984
0.002924792
0.0036087618
0.0042721155
0.0049046896
0.0054897138
0.0060144775
0.0064819123
0.0068970845
0.0072661495
0.0075968884
0.0078976044
0.008177963
0.0053605991
0.0049240714
0.0046012018
0.0043233524
0.004031639
0.0036947676
0.0033129407
0.0029069212
0.0024977383
0.0020967853
0.0017096272
0.0014458515
0.0011728204
0.00095580436
0.00078055089
0.00064603572
0.00054387527
0.00044485864
0.00032153916
0.00014465737
7.9561367e-05
0.0059643333
0.0067105517
0.0074624192
0.0080579764
0.0084384374
0.0087043304
0.0090326666
0.0095308824
0.010089889
0.011237602
0.011759858
0.01226882
0.012415623
0.012107325
0.011268481
0.0099892023
0.008403731
0.0066763062
0.0049792252
0.0034720328
0.0022810267
0.0014818444
0.0010922292
0.0010775569
0.0013669369
0.0018733321
0.0025107416
0.0032060538
0.0039041463
0.0045877088
0.0052296411
0.0058087135
0.006325889
0.0067846444
0.007191008
0.0075517974
0.0078755177
0.0081711595
0.0084495148
0.0057961439
0.0053689162
0.0050674976
0.0047905447
0.0044758033
0.0040999254
0.0036726826
0.003221988
0.0027726322
0.0023347453
0.0019029539
0.0016068623
0.0012868699
0.0010327962
0.00082688445
0.00066183074
0.00053854338
0.00044590909
0.00035617061
0.00024621303
0.00010512493
6.5663406e-05
0.006426412
0.0072263303
0.008045063
0.0087169765
0.0091991669
0.0096073827
0.010099243
0.010768462
0.011516794
0.012807194
0.013339722
0.01372976
0.013649204
0.013029228
0.011855573
0.01026374
0.0084176662
0.0065014585
0.0046974842
0.0031642195
0.0020156116
0.0013063036
0.0010295889
0.0011284682
0.0015160775
0.0020967435
0.0027827429
0.0035040472
0.004234763
0.0049347485
0.0055716256
0.0061428544
0.0066501788
0.0070983296
0.0074941327
0.0078451067
0.0081605086
0.0084500659
0.0087257526
0.0062374647
0.0058083088
0.0055366601
0.0052838045
0.004955045
0.0045354349
0.004051675
0.0035453792
0.0030474536
0.0025690478
0.0020962541
0.0017777364
0.0014159729
0.0011211814
0.00088182027
0.00068880808
0.00053936882
0.00043143239
0.00035122444
0.00027375397
0.00018102426
7.405452e-05
5.1808636e-05
0.0069082344
0.0077798005
0.0086888593
0.0094681087
0.010085794
0.010649646
0.011305953
0.012164285
0.013112008
0.014528274
0.015020501
0.015208783
0.014839496
0.013856283
0.012323113
0.010413022
0.0083170392
0.0062351225
0.0043547654
0.0028278915
0.0017506962
0.0011530089
0.0010018435
0.0012183131
0.0017013472
0.0023496843
0.0030769821
0.0038471382
0.0046043837
0.0053015484
0.0059311508
0.0064918541
0.0069870947
0.0074226041
0.0078060473
0.0081456527
0.0084514604
0.0087339927
0.0090064824
0.0066959481
0.0062516651
0.0059995672
0.0057818392
0.0054632306
0.0050060802
0.0044580023
0.0038834447
0.0033259697
0.0027994777
0.0022826414
0.0019461407
0.0015522046
0.0012226389
0.00094740241
0.0007246422
0.00055072542
0.00042160211
0.00033166563
0.00026627764
0.00020325819
0.00013004606
5.0668542e-05
3.8795966e-05
0.0074225674
0.0083874346
0.0094148922
0.010333481
0.011104445
0.011821827
0.0126618
0.013734061
0.014881595
0.016404136
0.016763906
0.016677045
0.015952128
0.014563261
0.012654252
0.010429134
0.0081019258
0.0058835766
0.0039614478
0.0024750767
0.001497908
0.0010315517
0.0010153701
0.0013496976
0.0019226356
0.002631314
0.003428014
0.0042386373
0.0049971979
0.0056888434
0.0063079388
0.0068554946
0.0073362691
0.0077570323
0.0081262777
0.0084529566
0.0087479532
0.0090226372
0.0092914538
0.0071834336
0.0067116685
0.0064669126
0.0062735956
0.0059758976
0.0055049974
0.0048969638
0.0042450202
0.0036149795
0.0030300411
0.0024616086
0.0021060774
0.0016841749
0.0013295428
0.0010247896
0.00077092171
0.00057142374
0.00042189337
0.00031598078
0.0002458528
0.00019635991
0.00014822422
9.2380357e-05
3.3972775e-05
2.7489975e-05
0.0079843879
0.0090677889
0.010244017
0.011321799
0.012240746
0.013129962
0.014184076
0.015486739
0.016835037
0.018410823
0.018528124
0.018104113
0.01695137
0.015126876
0.01283586
0.01030829
0.0077760172
0.005456007
0.0035298842
0.0021191182
0.0012695849
0.00095098767
0.0010747004
0.0015236279
0.00218
0.0029831269
0.0038389488
0.0046577336
0.005414206
0.0060963625
0.0067018273
0.0072334203
0.0076972569
0.0081011037
0.0084542806
0.0087665274
0.0090495894
0.009315628
0.0095804058
0.0077138692
0.0071996684
0.006952143
0.0067723553
0.0064828455
0.0060061186
0.0053605914
0.004635446
0.0039242221
0.0032683402
0.0026370649
0.0022565813
0.0018060944
0.0014316097
0.0011068346
0.00082838234
0.00060295594
0.00043218444
0.00031028693
0.00022894295
0.00017869153
0.00014303891
0.00010753708
6.5146614e-05
2.2781037e-05
1.8369975e-05
0.008611404
0.0098414454
0.011186767
0.012416802
0.013495578
0.014594287
0.015888537
0.017434372
0.018970735
0.020512836
0.020277219
0.019444125
0.017805456
0.015528136
0.012859405
0.010050866
0.0073463843
0.0049641356
0.003074424
0.0017748271
0.001077849
0.00091829123
0.0011824833
0.0017416191
0.0025219613
0.0034086128
0.0042832255
0.0051057205
0.0058551401
0.006524019
0.0071124871
0.007625192
0.0080695249
0.0084542274
0.0087895072
0.0090858799
0.0093558991
0.0096125594
0.0098730653
0.0083038433
0.0077302637
0.0074683028
0.0072923092
0.0069998277
0.0065023642
0.0058239087
0.0050459877
0.0042586086
0.0035249604
0.0028189562
0.0024035051
0.0019185116
0.001523805
0.001184266
0.00089017342
0.00064551147
0.00045406902
0.0003152565
0.00022200904
0.00016389813
0.00012967305
0.00010447667
7.8102986e-05
4.5890815e-05
1.5357859e-05
1.1599672e-05
0.0093216959
0.01071943
0.012228637
0.0136135
0.014891468
0.016232892
0.01779087
0.019585163
0.02127641
0.02265714
0.021973759
0.020654063
0.018488784
0.015752807
0.01272128
0.0096610576
0.0068231133
0.0044223285
0.0026117204
0.0014575382
0.00093254194
0.00093834817
0.001342398
0.0020587213
0.0029536936
0.0038750253
0.0047624336
0.0055823208
0.0063200043
0.0069715262
0.0075395018
0.0080302711
0.0084524502
0.0088158114
0.0091313934
0.0094104643
0.0096663528
0.0099130066