/*--------------------------------*- C++ -*----------------------------------*\
  =========                 |
  \\      /  F ield         | OpenFOAM: The Open Source CFD Toolbox
   \\    /   O peration     | Website:  https://openfoam.org
    \\  /    A nd           | Version:  8
     \\/     M anipulation  |
\*---------------------------------------------------------------------------*/
FoamFile
{
    version     2.0;
    format      ascii;
    class       volVectorField;
    location    "399.966377299886858";
    object      U;
}
// * * * * * * * * * * * * * * * * * * * * * * * * * * * * * * * * * * * * * //

dimensions      [0 1 -1 0 0 0 0];

internalField   nonuniform List<vector> 
9200
(
(1.0363279 0.00065501891 -2.7354819e-24)
(1.0364943 0.0020709203 9.1920667e-22)
(1.0342833 0.00064675422 0)
(1.0367726 0.0033214056 -4.8621363e-22)
(1.034415 0.0020627075 6.9153037e-22)
(1.033429 0.00063563295 0)
(1.0371428 0.0045498502 -4.9358505e-23)
(1.0346732 0.0033077707 5.6264551e-24)
(1.0335541 0.002035831 0)
(1.0321966 0.00061015027 0)
(1.0375661 0.0056786024 1.0048088e-21)
(1.0350219 0.0045400556 6.6953671e-22)
(1.0337982 0.0032696609 4.0450792e-22)
(1.0322963 0.0019669995 2.4115161e-23)
(1.0312305 0.00057850422 3.9574226e-25)
(1.0380278 0.0067078828 9.7975593e-22)
(1.0354734 0.0056854657 -3.2454412e-23)
(1.0341323 0.0045005913 1.3677895e-21)
(1.0325041 0.0031627239 5.6908678e-22)
(1.0313158 0.0018740775 3.0527089e-23)
(1.0302945 0.00054053655 -9.7699175e-22)
(1.0385064 0.0075992499 8.8845563e-22)
(1.0360325 0.0067501455 1.0047366e-21)
(1.0345792 0.0056747472 -8.3466631e-22)
(1.0327774 0.0043637383 -6.3586014e-23)
(1.0314977 0.0030117577 4.9061417e-22)
(1.0303641 0.0017580028 4.9994545e-22)
(1.0294683 0.00050163717 9.5664519e-23)
(1.0389738 0.0082928679 1.5179974e-22)
(1.0367303 0.0077038077 8.2469547e-22)
(1.0351487 0.0068168036 1.0196743e-21)
(1.033136 0.0055364179 7.4308137e-23)
(1.0317251 0.0041532682 -1.3259898e-21)
(1.0305204 0.0028185203 -5.8603622e-22)
(1.0295302 0.0016356029 -5.0979432e-22)
(1.0287248 0.00046512748 8.4051036e-22)
(1.0394032 0.0087308334 -1.0548891e-21)
(1.0375726 0.0085038264 1.0257138e-21)
(1.0358657 0.0079167642 3.4506108e-23)
(1.0335926 0.0067312947 4.9426638e-22)
(1.0320041 0.0052742511 1.9834504e-22)
(1.0306992 0.0038725617 -1.9301279e-21)
(1.0296749 0.0026140577 -1.0204149e-24)
(1.0287835 0.0015177737 -8.3911115e-22)
(1.0280604 0.00043368329 -1.7189023e-21)
(1.0398148 0.0089287771 4.161823e-22)
(1.0386133 0.0091431351 -6.0439908e-22)
(1.0367475 0.0089789924 -4.5854413e-23)
(1.034162 0.0079744362 -2.3454084e-22)
(1.0323276 0.0064328228 -2.2186333e-22)
(1.0308874 0.0048942583 3.6502981e-22)
(1.0298324 0.0035734017 6.7046548e-22)
(1.0289253 0.0024181033 1.0395408e-21)
(1.0281204 0.0014140288 5.9886605e-22)
(1.0274602 0.00040790499 1.5382191e-22)
(1.0403523 0.0086230807 -3.9360831e-22)
(1.0399667 0.0094498327 2.3329402e-23)
(1.0377869 0.01003512 8.3896777e-22)
(1.0348586 0.0093215593 -9.0982034e-22)
(1.0326877 0.0076796013 5.4249109e-22)
(1.0310538 0.0059287195 -1.7455622e-21)
(1.0299833 0.0044818119 1.2875757e-22)
(1.0290786 0.0032870481 1.4736911e-21)
(1.0282667 0.0022491418 -6.9277206e-22)
(1.0275231 0.0013275081 1.5642455e-21)
(1.0269138 0.00038744924 -1.9154435e-22)
(1.0408514 0.0077075864 4.5554964e-22)
(1.041695 0.009701048 -6.5178738e-23)
(1.0389575 0.011149224 -9.3858652e-22)
(1.035645 0.01084075 0)
(1.0330156 0.0090781558 4.4492944e-23)
(1.0311719 0.0070238056 -4.9745611e-22)
(1.0300849 0.0053575524 -3.2737763e-22)
(1.029228 0.0040874277 -7.3590079e-22)
(1.0284308 0.0030448278 -4.4312752e-22)
(1.0276756 0.0021141443 -8.6402947e-22)
(1.0269779 0.0012567393 -5.5080148e-22)
(1.0264128 0.00037053177 1.3464526e-22)
(1.0414225 0.0060498883 1.4689361e-22)
(1.0443555 0.0097800393 -5.2905961e-22)
(1.0405623 0.012404081 0)
(1.0364362 0.012592077 0)
(1.0332024 0.010703399 -2.4136977e-22)
(1.0311782 0.0082205793 -4.7982527e-22)
(1.0301042 0.0062174634 -2.3760143e-22)
(1.029334 0.004812501 9.4945516e-22)
(1.0286084 0.0037638245 1.1230661e-22)
(1.0278547 0.00285894 5.3815387e-24)
(1.027134 0.0020096663 8.0984159e-22)
(1.0264755 0.0011949183 -7.1210532e-22)
(1.0259527 0.00035449458 1.6861623e-21)
(1.0420982 0.0034480076 -2.6420418e-21)
(1.0479324 0.0094070423 1.2959541e-22)
(1.0428847 0.013829901 -8.1438039e-22)
(1.037387 0.014680527 3.7945827e-22)
(1.0332078 0.01263775 -1.3251976e-22)
(1.0309533 0.0095446382 -2.6399194e-22)
(1.0299775 0.0070617545 3.0982314e-22)
(1.0293732 0.0054510937 3.3765619e-23)
(1.0287732 0.0043838494 1.1983097e-21)
(1.0280683 0.0035327319 1.1287933e-21)
(1.0273232 0.0027234435 2.5505906e-22)
(1.0266303 0.0019218532 7.4285121e-22)
(1.0260117 0.0011337886 4.7654608e-22)
(1.0255321 0.00033720569 -4.2812056e-22)
(1.0429159 -0.00020877456 3.7841786e-21)
(1.0525858 0.0085033637 4.517614e-21)
(1.0460335 0.015612689 -3.6282504e-22)
(1.0386219 0.017334541 4.1854446e-23)
(1.033004 0.015004127 -8.3484977e-23)
(1.0303682 0.011046092 4.6688355e-22)
(1.0295857 0.0078778417 3.1531526e-22)
(1.0293018 0.0059703933 -3.7216416e-22)
(1.0289192 0.0048800297 -2.1491797e-22)
(1.0283049 0.0041078306 -1.5353934e-22)
(1.0275624 0.0033837008 -1.5576706e-23)
(1.0268192 0.0026150687 -2.8029708e-22)
(1.0261595 0.0018346749 -7.6770898e-22)
(1.0255862 0.0010665094 3.2126107e-22)
(1.0251521 0.00031734186 -2.7192212e-22)
(1.043665 -0.0049189434 5.9794853e-21)
(1.0582323 0.0070104801 -4.2977462e-21)
(1.0502704 0.017801185 1.057643e-21)
(1.0402064 0.020772275 -6.5420931e-22)
(1.0325001 0.018001494 9.4839532e-23)
(1.0292662 0.012812628 -8.0561515e-22)
(1.0287613 0.0086595457 -4.2216874e-22)
(1.0290301 0.0063211465 8.5093205e-23)
(1.0290242 0.0051953631 -1.8451087e-22)
(1.0285757 0.0045589435 -6.2299202e-22)
(1.0278531 0.0039639771 -1.7259651e-21)
(1.0270666 0.0032774643 2.0735602e-23)
(1.0263373 0.002506048 2.2831722e-22)
(1.0257231 0.0017349472 1.905168e-22)
(1.0252013 0.00098894972 1.1872295e-22)
(1.0248142 0.00029460113 2.765974e-22)
(1.044297 -0.010731542 0)
(1.0644952 0.0049002284 -6.5089375e-21)
(1.0554489 0.020554498 1.0778229e-21)
(1.0421934 0.025265001 0)
(1.0316323 0.021842826 0)
(1.0274971 0.014935038 0)
(1.0273562 0.0093960012 2.2669791e-22)
(1.0284131 0.0064281407 4.9830574e-22)
(1.0290676 0.0052746254 9.8103832e-22)
(1.0288844 0.0048230085 5.6893992e-22)
(1.0282211 0.0044483343 2.2257227e-22)
(1.0273838 0.0038877573 3.8488367e-22)
(1.0265728 0.0031695247 7.405502e-23)
(1.0258817 0.0023747892 -2.6849311e-22)
(1.0253263 0.0016147653 -1.5410499e-22)
(1.0248603 0.00090031607 -1.3150659e-22)
(1.0245194 0.00026964867 0)
(1.0448308 -0.017604775 1.10553e-20)
(1.0715536 0.0020241795 1.5006876e-20)
(1.061237 0.023874408 -7.101986e-21)
(1.0444025 0.031185852 -3.6855166e-23)
(1.0302415 0.026795379 8.7879535e-22)
(1.0248725 0.01751611 0)
(1.0252078 0.010059842 1.6518596e-21)
(1.0273412 0.0061904582 -5.889615e-22)
(1.0289622 0.0049764346 -3.8419655e-22)
(1.0293095 0.0048685116 1.0668767e-21)
(1.0287144 0.004793687 -3.3400408e-22)
(1.0278091 0.0044480044 2.8392366e-22)
(1.0268781 0.0038116456 3.3369308e-22)
(1.0260868 0.0030258541 -9.9351475e-22)
(1.0254623 0.0022084422 -4.8548452e-22)
(1.0249753 0.0014724973 -8.2286367e-22)
(1.0245653 0.00080301332 -3.6393124e-22)
(1.0242671 0.00024385363 -2.542045e-22)
(1.0450253 -0.025544108 -1.4617748e-21)
(1.0792018 -0.001729314 1.0859525e-20)
(1.0679378 0.027869552 2.0109002e-21)
(1.0465555 0.038486854 -1.8341668e-21)
(1.0281669 0.033211519 -2.0642137e-22)
(1.0211044 0.020688277 -1.3597837e-21)
(1.0220976 0.010616236 -4.2041126e-21)
(1.0257071 0.0054896756 -3.0180393e-21)
(1.028662 0.0041553994 -7.4037652e-22)
(1.0298234 0.0045130237 -6.6988044e-22)
(1.0294056 0.004943324 -2.4942357e-22)
(1.0284154 0.0049341579 -6.3703844e-22)
(1.0272953 0.0044603255 -2.623378e-22)
(1.026343 0.0036817378 2.0901037e-22)
(1.0256265 0.0028244124 2.9915654e-22)
(1.0250908 0.0020037527 1.1904218e-22)
(1.0246751 0.0013125255 -2.1655223e-22)
(1.0243168 0.00070182796 -3.2252651e-23)
(1.0240549 0.00021892974 -1.7677421e-22)
(1.0449585 -0.033998414 -1.2662693e-20)
(1.0872161 -0.0062638714 -1.6346845e-20)
(1.0755071 0.032617188 2.4939371e-20)
(1.0486623 0.047449353 4.4928278e-22)
(1.0253368 0.04100351 -8.4747658e-22)
(1.0159136 0.024678494 -7.2314413e-22)
(1.0177371 0.011027072 5.6400296e-22)
(1.0233486 0.004185773 1.9507708e-22)
(1.0281445 0.0026243725 -3.5411732e-22)
(1.030459 0.0036247698 -8.1866604e-22)
(1.0304133 0.0048825159 -9.3550555e-22)
(1.0292198 0.0053270972 4.0026237e-22)
(1.0278746 0.0051278052 4.6978352e-22)
(1.0266808 0.0043986779 -4.7746717e-23)
(1.0258098 0.0034607565 2.7274143e-22)
(1.0252127 0.0025567465 3.2286251e-22)
(1.024778 0.0017668302 1.7880212e-22)
(1.0244282 0.0011435543 3.6553021e-22)
(1.0241128 0.000602676 9.6340754e-23)
(1.0238787 0.00019654904 1.5025053e-22)
(1.0415273 -0.043595153 -1.9332708e-21)
(1.0949968 -0.012644138 -2.7152801e-20)
(1.0845409 0.038067555 7.5270346e-22)
(1.0507696 0.058340631 -4.698786e-21)
(1.0214922 0.050426715 -2.5481209e-21)
(1.0093926 0.029428385 -1.9226508e-21)
(1.0117416 0.01125837 5.0264605e-21)
(1.0200621 0.0021208108 6.6711866e-21)
(1.0273419 0.00019739226 3.1025544e-22)
(1.0312758 0.0019954935 0)
(1.03185 0.0044227926 5.8444759e-22)
(1.0304032 0.0057022947 7.13955e-22)
(1.0286234 0.0058580254 -2.3992093e-22)
(1.0271129 0.0052196634 -5.3741563e-22)
(1.0260205 0.0041889694 -3.9586979e-22)
(1.02532 0.0031337392 3.2297037e-22)
(1.0248669 0.0022317734 3.6734542e-22)
(1.0245307 0.0015109574 4.2296756e-23)
(1.0242338 0.00097623033 6.9693024e-23)
(1.023949 0.00051132203 4.0699526e-23)
(1.0237331 0.00017805845 1.0077301e-22)
(1.0342996 -0.053296803 8.504679e-21)
(1.0989479 -0.020113566 -2.9275712e-20)
(1.0960807 0.043717058 -2.0891376e-20)
(1.0546763 0.071012285 1.5951636e-20)
(1.0166526 0.061643178 -1.5083706e-21)
(1.0012521 0.035132598 -6.3264239e-22)
(1.0041629 0.011280996 0)
(1.0155797 -0.00091192378 -2.8108908e-22)
(1.0261715 -0.0033513763 -1.0885799e-21)
(1.0323226 -0.00056367806 -7.0897962e-22)
(1.0338091 0.0034288657 3.9167013e-22)
(1.0321917 0.0059832193 2.1392929e-22)
(1.0297216 0.0067146162 -1.526335e-22)
(1.0276444 0.0062175137 3.4261802e-22)
(1.0262448 0.0050650663 1.0616021e-22)
(1.0253952 0.0038003022 -1.1626771e-22)
(1.0249108 0.002708685 -3.9821342e-23)
(1.0246045 0.0018718036 1.0410399e-22)
(1.0243496 0.0012533766 2.0778279e-22)
(1.0240878 0.0008208616 3.4782945e-23)
(1.0238195 0.00043242648 3.1797844e-23)
(1.0236121 0.00016436223 0)
(1.0243692 -0.062865964 -7.4831554e-22)
(1.0976957 -0.029074566 2.0282048e-20)
(1.1056263 0.04829676 -4.5711859e-22)
(1.0630475 0.084821329 2.200713e-20)
(1.0126577 0.074630767 -2.7357078e-21)
(0.99105313 0.041934623 2.708784e-21)
(0.9949473 0.011001223 8.0307418e-22)
(1.0096742 -0.0050778345 4.4852984e-21)
(1.0245314 -0.0082768481 7.2604292e-22)
(1.0336653 -0.0043007434 5.724798e-23)
(1.0364579 0.0017459933 -1.1078112e-23)
(1.0347186 0.0061136745 -3.9709742e-22)
(1.0313711 0.0077681461 -9.1891507e-23)
(1.0283948 0.0074860608 1.9146167e-21)
(1.02646 0.0061758701 9.0725377e-22)
(1.0254032 0.004618408 3.5630468e-22)
(1.0248731 0.0032509361 -2.4852288e-22)
(1.0246085 0.0022140475 -1.264894e-22)
(1.0244305 0.001504608 6.1465395e-23)
(1.0242304 0.0010113722 -1.950045e-24)
(1.0239835 0.00068587592 0)
(1.0237178 0.00036914898 -1.8776008e-23)
(1.0235098 0.00015593742 -4.206191e-24)
(1.0111565 -0.072419165 -7.3840448e-21)
(1.0928711 -0.038329435 6.286105e-20)
(1.106166 0.051228547 -5.097827e-20)
(1.0753895 0.10086625 -1.5770298e-20)
(1.011347 0.089884635 5.7986799e-21)
(0.97946503 0.049888242 0)
(0.98359751 0.0105122 1.5713439e-22)
(1.0026105 -0.010521721 1.8605848e-21)
(1.0222488 -0.014895767 1.5966806e-21)
(1.0353608 -0.0094998057 -5.5014655e-22)
(1.0400044 -0.00083243689 2.2664284e-22)
(1.0382153 0.0060245626 2.6737737e-22)
(1.0337347 0.0091013578 -9.3585016e-23)
(1.0295003 0.0091809825 5.6726717e-22)
(1.0266971 0.0076439974 -4.0086639e-22)
(1.0252778 0.0056777004 -1.2736489e-21)
(1.0246918 0.0039147605 -1.0473905e-21)
(1.0244964 0.0025871164 -3.4458193e-23)
(1.0244278 0.0016985889 -3.9480063e-22)
(1.0243398 0.001157487 3.9958389e-22)
(1.0241646 0.00079980138 1.5610594e-22)
(1.0239128 0.0005771278 -1.2801489e-22)
(1.0236373 0.00032327097 4.6624206e-23)
(1.02342 0.00015290041 -1.8178302e-24)
(0.99430471 -0.081413439 1.0008842e-20)
(1.0825051 -0.046482158 5.7339693e-20)
(1.0990126 0.054212078 5.7262671e-21)
(1.0756667 0.11698268 7.6680317e-20)
(1.0098903 0.10858845 -7.7556311e-21)
(0.96789505 0.05988449 -1.1489059e-20)
(0.96971723 0.0095439732 1.1809071e-22)
(0.9943715 -0.017301229 -6.6147993e-21)
(1.0193318 -0.023395038 1.3687851e-21)
(1.0374276 -0.016468597 -7.1792427e-23)
(1.0446735 -0.0045550529 -1.4193073e-22)
(1.0429841 0.0056448583 -8.6170906e-22)
(1.0370494 0.010786812 5.8202776e-22)
(1.0310778 0.011481327 -1.055075e-22)
(1.027008 0.0096570049 -1.3716728e-21)
(1.0249763 0.0070916688 8.3359285e-23)
(1.0242735 0.0047791074 -1.9828531e-22)
(1.0241837 0.0030297149 -4.3516462e-23)
(1.024288 0.0018799103 0)
(1.0243637 0.0012080264 -4.3530181e-23)
(1.0243204 0.0008529602 -4.8716922e-24)
(1.0241412 0.00062955786 3.5822279e-25)
(1.0238669 0.00049781742 4.1881959e-23)
(1.0235709 0.00029538582 -5.568169e-23)
(1.0233371 0.00015500889 3.9658414e-24)
(0.9749986 -0.089826252 -1.5692787e-21)
(1.0676227 -0.054480014 -3.5974718e-20)
(1.0855686 0.058702084 -2.1646388e-20)
(1.0601707 0.13242496 -8.7588491e-21)
(1.0046017 0.1287432 -1.6763674e-20)
(0.9571424 0.072236956 3.8204295e-21)
(0.95381196 0.0084002731 6.9811478e-23)
(0.98428695 -0.025707991 4.6285208e-22)
(1.0161099 -0.033861275 2.1966925e-21)
(1.0397227 -0.025568693 -1.6604888e-21)
(1.050695 -0.0096924225 -1.0138066e-21)
(1.0493695 0.0048537262 2.3254343e-22)
(1.0416161 0.012920628 1.4957476e-22)
(1.0332805 0.014593075 -3.9906281e-22)
(1.0274212 0.012435235 -5.822806e-22)
(1.0244643 0.0090313059 1.9954871e-21)
(1.0235244 0.0059195175 3.5448138e-21)
(1.0235675 0.0035930042 6.6741845e-23)
(1.0239188 0.0020609365 -1.8324279e-22)
(1.0242461 0.0012025514 4.4938896e-23)
(1.0243992 0.00077745971 3.1933252e-22)
(1.0243569 0.00060692577 2.7548748e-22)
(1.0241478 0.00050659351 -3.1129314e-22)
(1.0238362 0.00044902222 1.7702266e-22)
(1.0235119 0.00028483225 -6.0263006e-23)
(1.0232576 0.00016168519 6.0125465e-25)
(0.95449231 -0.09754984 2.2958866e-22)
(1.0490839 -0.061833547 -3.830003e-20)
(1.0684759 0.063359158 8.8810551e-20)
(1.0420836 0.14732225 -5.6814805e-20)
(0.99393637 0.14726968 2.6804766e-20)
(0.94759232 0.086680724 1.0824806e-20)
(0.93720276 0.0076304756 5.9308119e-21)
(0.97215732 -0.035962549 5.3925921e-21)
(1.0123357 -0.046379238 -2.2107107e-21)
(1.0424218 -0.037118995 1.2197195e-21)
(1.0583598 -0.016587489 5.8231954e-22)
(1.0577901 0.0035311462 4.1910249e-21)
(1.047779 0.015623343 -2.3460974e-21)
(1.0362938 0.018778497 -3.7920137e-22)
(1.0279563 0.016243644 -4.009485e-22)
(1.0236752 0.01170212 5.4826295e-22)
(1.0223414 0.0074565705 -5.2354928e-22)
(1.0225324 0.0043065863 7.1236226e-22)
(1.0232221 0.0022554552 -3.697619e-22)
(1.0239053 0.0011183358 2.8735e-22)
(1.0243493 0.00060421123 0)
(1.024513 0.00042974136 2.5527689e-22)
(1.0244322 0.00042803557 -7.947006e-23)
(1.0241736 0.0004322043 0)
(1.0238125 0.00043023797 -2.331895e-22)
(1.0234568 0.00028993191 8.4637693e-25)
(1.0231776 0.00017246754 -1.9449573e-24)
(0.93341897 -0.10456583 4.5852194e-22)
(1.027573 -0.068561099 -3.4170602e-21)
(1.0475864 0.068184349 7.5006904e-20)
(1.0226111 0.16153438 -7.6153046e-21)
(0.97774065 0.16401032 8.2183165e-22)
(0.93688395 0.10172567 -6.8304233e-21)
(0.92072461 0.0078084846 -4.4132422e-22)
(0.9581858 -0.047850113 -3.7992176e-21)
(1.0074955 -0.061239988 -1.176409e-21)
(1.0456668 -0.050972397 -2.0309915e-21)
(1.0675975 -0.025826693 8.6788799e-21)
(1.0688187 0.0014779668 2.7838622e-21)
(1.0559847 0.019025657 1.4826217e-21)
(1.040307 0.024358915 -6.6022688e-22)
(1.0286148 0.021404671 -1.1114876e-21)
(1.0225055 0.015345303 -4.1504767e-22)
(1.0205868 0.0095374597 -3.031708e-21)
(1.0209337 0.0052275943 -3.7087563e-22)
(1.022082 0.0024577318 -2.0289708e-22)
(1.0232548 0.00092464519 -1.5700358e-21)
(1.0241154 0.00027810524 3.646888e-22)
(1.0245691 0.0001166779 2.0923025e-22)
(1.0246824 0.00017700516 -8.6658636e-24)
(1.0245318 0.00031869252 0)
(1.0242091 0.00040436086 0)
(1.0237949 0.00043733921 1.897699e-23)
(1.0234019 0.00030926342 -9.844075e-23)
(1.0230936 0.00018697289 1.3842923e-23)
(0.9122576 -0.11076694 0)
(1.0042747 -0.074554255 -1.7858038e-20)
(1.0244356 0.072947819 -6.7644729e-20)
(1.0000489 0.17525564 -2.4298973e-20)
(0.9574694 0.17962178 -1.8783475e-20)
(0.92185489 0.11593912 2.8447582e-21)
(0.90440041 0.0091631027 -4.4123855e-21)
(0.94287642 -0.060938898 -3.4483937e-21)
(1.0014883 -0.078450534 3.9226733e-21)
(1.0489137 -0.067362827 -1.6861253e-21)
(1.078016 -0.037317509 -9.4639597e-22)
(1.0826679 -0.0014592064 -1.0919544e-21)
(1.0668047 0.023295274 7.4128686e-21)
(1.0455616 0.03166164 -1.6033452e-21)
(1.0293697 0.02828963 -6.1031528e-22)
(1.020815 0.020232012 -1.695223e-21)
(1.0180806 0.012324408 -1.9055116e-22)
(1.0185941 0.0064243428 -1.0326744e-21)
(1.0203451 0.0026642874 1.2374277e-21)
(1.0221845 0.00059149112 -1.3493717e-21)
(1.0236236 -0.00026224869 3.3480277e-22)
(1.0245013 -0.00041052619 2.1926914e-22)
(1.0248738 -0.00024212891 5.1453177e-23)
(1.0248875 2.2363184e-05 -1.0184275e-21)
(1.0246437 0.00027616298 -1.2098343e-22)
(1.0242407 0.0004159915 -9.8433433e-24)
(1.0237727 0.00047420371 2.7976379e-22)
(1.0233396 0.00034325946 -5.7024304e-23)
(1.0230036 0.00020446396 -6.1205688e-23)
(0.89142259 -0.11631601 -6.3760828e-21)
(0.98023914 -0.080051659 0)
(1.0000921 0.077378697 0)
(0.97628493 0.18806172 0)
(0.93510719 0.1941181 6.7518435e-21)
(0.90297374 0.12897138 -9.7021787e-21)
(0.88754875 0.011197881 -3.8555281e-22)
(0.92658462 -0.074810407 -1.6811496e-21)
(0.99419583 -0.097834005 2.051875e-22)
(1.0518924 -0.086366976 1.7016442e-20)
(1.0895861 -0.051152441 -5.8556207e-21)
(1.0985339 -0.0055977918 3.1733708e-21)
(1.0802526 0.028751223 -3.4300227e-21)
(1.052372 0.041310791 2.9218927e-21)
(1.030232 0.037260461 1.496682e-21)
(1.0184493 0.026653718 -5.1377002e-22)
(1.0146117 0.015991176 -2.3156753e-21)
(1.0153021 0.0079645437 1.5221801e-22)
(1.0178269 0.0028658896 1.7966058e-21)
(1.0205583 7.3963873e-05 7.2136635e-22)
(1.0227744 -0.0010663488 -4.1981499e-22)
(1.0242439 -0.0012207938 -3.3892695e-22)
(1.0250047 -0.00091699596 7.8021559e-22)
(1.0252276 -0.00046738973 -6.5462735e-22)
(1.0251092 -4.0516744e-05 1.1771779e-22)
(1.0247537 0.00029257143 -2.0378662e-22)
(1.0242676 0.00046383323 4.4861266e-22)
(1.0237409 0.00054090617 3.1881545e-23)
(1.0232693 0.00038848836 1.8830565e-22)
(1.0229061 0.00022419151 -6.5872463e-23)
(0.86931994 -0.12169619 -7.0653447e-21)
(0.95616759 -0.084555503 -1.0721184e-20)
(0.97540906 0.081646979 0)
(0.95200805 0.20000108 0)
(0.91206715 0.20742122 0)
(0.88254476 0.14062287 0)
(0.86995237 0.013224851 0)
(0.90979979 -0.089043846 4.7999012e-22)
(0.98550853 -0.11910293 -2.0669225e-21)
(1.0539674 -0.1075525 -2.6369701e-20)
(1.1013859 -0.067235886 -1.119006e-21)
(1.1159001 -0.010731202 -1.2724689e-20)
(1.0957167 0.035492699 1.6412215e-20)
(1.0604771 0.05361677 -1.948313e-21)
(1.0311932 0.049026259 -2.1043692e-22)
(1.0151732 0.034895745 3.9596157e-22)
(1.0099277 0.0206993 -3.2728899e-22)
(1.0108198 0.0099122321 1.2783471e-21)
(1.0143229 0.0030440625 -8.0888557e-22)
(1.0182168 -0.00069285026 -1.1622488e-22)
(1.0214606 -0.0022116843 5.946529e-23)
(1.0237183 -0.0023776039 -2.8205466e-22)
(1.0250199 -0.0019069208 -4.67518e-23)
(1.0255675 -0.0012296162 -3.2557438e-22)
(1.0255994 -0.0005636979 -1.1241076e-22)
(1.0253278 -2.3255532e-05 1.0785211e-21)
(1.0248529 0.00035891395 2.2590729e-22)
(1.0242881 0.0005526765 -2.0641248e-22)
(1.0237009 0.00061705541 5.5510852e-24)
(1.0231907 0.00044139534 -9.779876e-23)
(1.0228004 0.00024542477 5.0012119e-23)
(0.84593279 -0.12704359 1.3825793e-20)
(0.93092253 -0.089725756 -5.304729e-21)
(0.95115708 0.085756875 -4.0940906e-20)
(0.92810835 0.21104645 -3.679112e-20)
(0.88926485 0.21956472 0)
(0.86167663 0.15102245 0)
(0.85171581 0.014682767 -2.5558393e-22)
(0.89285901 -0.10333006 -1.0105326e-20)
(0.97494771 -0.14152771 6.4143739e-21)
(1.0542903 -0.1304082 -2.6313597e-20)
(1.1118072 -0.084858036 3.9775227e-21)
(1.1327047 -0.016441663 3.3005154e-20)
(1.1113527 0.044103328 -2.7012752e-21)
(1.0689947 0.068965405 7.4631117e-22)
(1.0319783 0.063802425 7.2683949e-24)
(1.010688 0.045472362 -2.9220032e-22)
(1.0036972 0.026598139 5.3791077e-21)
(1.0048838 0.012307716 -1.8657481e-22)
(1.009602 0.0031518408 -3.8324567e-21)
(1.014984 -0.0017972664 1.4050812e-21)
(1.0195667 -0.0038015384 -1.9527714e-21)
(1.022857 -0.003984099 -3.7317294e-22)
(1.0248709 -0.0032857594 1.5649738e-21)
(1.0258643 -0.0023092769 5.2607081e-23)
(1.0261414 -0.0013545353 -6.3673523e-22)
(1.0259635 -0.00054355463 7.1017542e-22)
(1.0255292 6.2297904e-05 3.1900854e-22)
(1.0249402 0.00047195599 2.1048381e-22)
(1.0242944 0.0006671708 -2.7943386e-22)
(1.0236485 0.00070821251 -2.2852969e-23)
(1.0231015 0.00050091293 8.8538554e-24)
(1.0226862 0.00026753264 7.242233e-24)
(0.82274843 -0.13202161 -5.9280319e-21)
(0.90405777 -0.095573536 3.4826809e-21)
(0.92662385 0.08840776 4.3282874e-20)
(0.90529686 0.22098185 4.5256233e-20)
(0.86741935 0.23044071 0)
(0.84142585 0.16018422 0)
(0.83346679 0.015579431 0)
(0.87598606 -0.1174644 1.1008243e-21)
(0.96270629 -0.16423327 -2.6382306e-20)
(1.0507679 -0.1539258 -4.0059555e-20)
(1.1199857 -0.10300653 5.8553351e-21)
(1.1470554 -0.022044694 7.7530344e-21)
(1.1248008 0.055485112 -4.9710224e-20)
(1.0750515 0.088272932 1.8552936e-20)
(1.0313542 0.082038725 -2.9013667e-21)
(1.0047493 0.058590128 0)
(0.99548478 0.033874907 1.4454101e-21)
(0.99717716 0.015162669 -1.716523e-21)
(1.003429 0.0031514903 -1.1768088e-21)
(1.0106701 -0.0033514894 5.8164582e-22)
(1.0169626 -0.0059687542 -5.056953e-22)
(1.0215925 -0.0061690363 8.5084434e-22)
(1.0245349 -0.0051692695 -5.5705834e-22)
(1.026105 -0.0037878533 -9.9362184e-22)
(1.0267073 -0.0024470054 6.970497e-22)
(1.0266892 -0.0013139968 -8.4292315e-23)
(1.0262965 -0.00042622449 2.3120528e-23)
(1.0257066 0.00020677526 2.493958e-23)
(1.025009 0.00062118166 -5.4437371e-22)
(1.0242854 0.00079812989 -2.5605713e-22)
(1.0235833 0.00081023519 4.6267386e-23)
(1.0230024 0.00056438234 -1.333052e-22)
(1.0225636 0.00028995914 1.8011033e-22)
(0.80021281 -0.13658462 -8.7310292e-21)
(0.87684166 -0.1009859 3.2442475e-21)
(0.90094382 0.088798174 4.5293209e-20)
(0.88278379 0.22995644 6.0024032e-20)
(0.8470438 0.24016224 -2.4548205e-20)
(0.82242904 0.16787721 1.1539281e-21)
(0.81579744 0.015974154 -5.5783073e-20)
(0.85922615 -0.13132347 2.2760901e-20)
(0.94914868 -0.18662292 8.9131695e-21)
(1.0436144 -0.17727321 9.6569249e-20)
(1.1203013 -0.12195417 -5.9718273e-20)
(1.1563055 -0.028794412 -8.5207086e-20)
(1.1374702 0.069449058 1.7393499e-21)
(1.0777035 0.11167521 1.4905496e-20)
(1.0267099 0.10419395 3.8831402e-21)
(0.99632216 0.074446351 1.7817448e-21)
(0.98502771 0.042713001 7.0613445e-22)
(0.98731744 0.018430353 -4.2968306e-22)
(0.99555126 0.0029497357 -4.9014818e-22)
(1.0050796 -0.0054860749 4.7175292e-23)
(1.0135159 -0.0088704988 1.4236321e-21)
(1.0198527 -0.0090915693 -1.5016503e-21)
(1.0239935 -0.0076966402 -4.133391e-22)
(1.0263061 -0.0057758852 1.3383481e-21)
(1.0273166 -0.0039186717 -1.4051292e-21)
(1.0274961 -0.0023585258 -5.7273954e-22)
(1.0271838 -0.0011398604 -5.9891807e-22)
(1.0265892 -0.00023059552 2.004497e-23)
(1.0258568 0.00040060877 -4.0758238e-22)
(1.0250563 0.00079450537 4.7760159e-23)
(1.0242605 0.00094273949 -1.231512e-22)
(1.0235067 0.00091644601 -2.0580999e-23)
(1.0228937 0.0006300482 9.5541555e-23)
(1.0224334 0.00031225719 -4.2367112e-22)
(0.77878914 -0.14070141 7.0232755e-21)
(0.84970942 -0.10595773 -4.2743418e-21)
(0.87445869 0.089607291 -6.9694209e-21)
(0.86030373 0.2378257 -3.0352604e-20)
(0.82730829 0.24985649 9.1824526e-20)
(0.80479049 0.17434092 1.3048194e-19)
(0.79917458 0.015832675 9.6560778e-21)
(0.84277569 -0.14470077 0)
(0.93462 -0.20816854 2.6432231e-20)
(1.0336717 -0.20013665 1.509412e-19)
(1.1162622 -0.14056908 2.5959332e-20)
(1.1589918 -0.036675005 4.0813835e-20)
(1.1527648 0.083671189 0)
(1.0828671 0.13805916 2.1269657e-21)
(1.0182833 0.12961541 -1.3860711e-20)
(0.9836634 0.093079166 -3.4023315e-21)
(0.97177756 0.052914181 -6.1301595e-21)
(0.97491203 0.022129609 0)
(0.98570401 0.0024163515 2.2851497e-21)
(0.9980287 -0.008345445 2.8816659e-21)
(1.009092 -0.012688137 -1.4301429e-21)
(1.0175672 -0.012936841 1.3898582e-21)
(1.0232335 -0.011035793 0)
(1.0264966 -0.0084055675 -1.3818563e-21)
(1.0280168 -0.0058607673 1.0534418e-21)
(1.0284272 -0.0037369676 -8.3424761e-23)
(1.0281946 -0.0020909593 -5.7673799e-22)
(1.0276095 -0.00086469618 7.2835219e-22)
(1.0268357 2.490557e-05 1.8887046e-24)
(1.0259758 0.00062870643 -1.2897823e-21)
(1.0250819 0.00098502996 1.2027843e-21)
(1.0242195 0.0010951806 3.7446857e-22)
(1.023418 0.0010263854 0)
(1.0227758 0.00069667811 -3.9868723e-24)
(1.022296 0.00033408919 -1.6087674e-22)
(0.75894429 -0.1443541 1.0799978e-20)
(0.82327132 -0.11050634 -2.1745534e-20)
(0.84815855 0.090057591 4.0324636e-20)
(0.8374915 0.24532132 -3.5939511e-21)
(0.80883606 0.26008904 3.2000556e-20)
(0.78743013 0.18290242 1.2115038e-20)
(0.78370123 0.01385972 9.7427301e-20)
(0.82672076 -0.15692363 1.9347761e-21)
(0.9195537 -0.22874182 0)
(1.0212784 -0.22219252 -5.6743255e-20)
(1.1090374 -0.15862234 6.8094563e-20)
(1.1573105 -0.045736371 -6.190009e-21)
(1.1634833 0.096181725 4.0491601e-20)
(1.0943551 0.16618878 -3.6545161e-20)
(1.0135562 0.1581756 -1.344904e-21)
(0.96661682 0.11356306 -4.8128141e-21)
(0.95482491 0.064399869 -1.3079839e-20)
(0.95991506 0.026002622 -5.9795536e-21)
(0.97355316 0.0013571581 2.6447653e-21)
(0.98935196 -0.012100505 -5.6750776e-21)
(1.0035659 -0.017610679 2.8789712e-21)
(1.0146688 -0.017907971 -3.0425366e-21)
(1.0222493 -0.015380436 0)
(1.02672 -0.011835393 -3.7299882e-22)
(1.0288781 -0.0083837504 2.4415539e-22)
(1.0295524 -0.005513413 8.3788275e-22)
(1.0293858 -0.0033142872 -1.2742818e-22)
(1.0287831 -0.0016926365 -5.3165194e-23)
(1.0279635 -0.00051642598 6.2322604e-22)
(1.0270344 0.00032175525 0)
(1.026063 0.00087701147 1.0999493e-21)
(1.0250862 0.0011870718 1.3749333e-21)
(1.0241632 0.0012514017 -5.0667897e-22)
(1.0233184 0.0011370055 -8.521767e-23)
(1.0226497 0.00076298041 -4.5381658e-24)
(1.0221523 0.00035519939 6.196193e-22)
(0.74115933 -0.14753315 -1.0523898e-20)
(0.79813081 -0.11460337 -1.3601332e-21)
(0.82261633 0.090218676 -3.054072e-20)
(0.81556014 0.25209596 -1.1410671e-21)
(0.79114292 0.26927073 -1.1398688e-19)
(0.77196391 0.19427379 -1.6593715e-19)
(0.76722419 0.017409531 -1.7488247e-22)
(0.81305243 -0.17069115 5.5918112e-20)
(0.90423856 -0.24807315 4.480144e-21)
(1.0069784 -0.24291474 5.5537168e-20)
(1.0973192 -0.17626309 -3.1344813e-21)
(1.152342 -0.053763977 -5.2212742e-20)
(1.1615139 0.1063987 -3.5187733e-21)
(1.1039458 0.194838 -4.0300059e-20)
(1.0158373 0.18941669 6.623022e-20)
(0.95123 0.13653719 -6.1019646e-21)
(0.93336542 0.076282356 3.9568258e-21)
(0.94201567 0.029794824 4.9975666e-21)
(0.95904616 -0.00033607145 -4.5638096e-21)
(0.97889035 -0.016955804 -1.4216139e-21)
(0.99683503 -0.023829475 1.3065311e-21)
(1.0110937 -0.024219976 -3.4327008e-21)
(1.0210415 -0.020943397 2.5745545e-21)
(1.0270345 -0.016250112 0)
(1.0299944 -0.011620083 1.5768649e-22)
(1.0309728 -0.0077653939 1.4747124e-21)
(1.0308406 -0.0048427619 -1.0075748e-21)
(1.0301675 -0.0027251146 1.7597175e-21)
(1.0292568 -0.0012086859 -6.7570889e-24)
(1.0282456 -0.00012318141 -7.5627062e-22)
(1.0271869 0.00064212068 -1.3828314e-21)
(1.0261208 0.0011380103 6.1646808e-22)
(1.0250701 0.0013943577 -4.6615767e-23)
(1.0240926 0.0014089656 -4.2862749e-22)
(1.0232087 0.0012464786 -1.2774981e-22)
(1.0225163 0.00082816616 -2.4584692e-23)
(1.0220034 0.00037542465 2.5896191e-22)
(0.72591434 -0.15021477 -1.2204052e-21)
(0.77486242 -0.11819819 2.8887128e-20)
(0.79843881 0.090035283 -6.9190935e-20)
(0.79495767 0.25801922 -7.8094955e-21)
(0.77490054 0.27767341 1.1280585e-21)
(0.75779675 0.20395964 -1.2878471e-21)
(0.75234271 0.025605558 9.0258418e-20)
(0.79635525 -0.17832572 -2.0649746e-20)
(0.88999067 -0.26653047 0)
(0.99133564 -0.26243421 -1.3398035e-20)
(1.0821633 -0.19270692 0)
(1.1428322 -0.060399506 0)
(1.1507727 0.11691161 -5.4451588e-20)
(1.1007914 0.2217032 3.8660965e-21)
(1.0186863 0.22223974 1.4210847e-20)
(0.94466465 0.16320031 6.2016411e-21)
(0.9096662 0.088745658 -2.1106504e-21)
(0.92057461 0.03308348 4.0387941e-21)
(0.94231538 -0.0029615431 4.2763476e-21)
(0.96642353 -0.023098084 1.4367143e-21)
(0.98882249 -0.031521762 -3.1764489e-21)
(1.0067882 -0.032078766 2.0549742e-21)
(1.0196105 -0.027948263 2.5854324e-22)
(1.0275092 -0.021854944 -1.3759005e-21)
(1.0314825 -0.015726577 -2.0657947e-22)
(1.0328215 -0.010585302 4.0742498e-22)
(1.0326783 -0.006713499 2.21407e-22)
(1.0318497 -0.0039621792 -1.0255925e-21)
(1.0307699 -0.0020389321 -6.448586e-23)
(1.0296219 -0.0006793436 -2.1909104e-21)
(1.028462 0.00029271404 -9.5711725e-23)
(1.0272982 0.00097353252 1.5072368e-23)
(1.026151 0.0014027976 -1.2046681e-21)
(1.0250354 0.0016026636 -6.7212545e-22)
(1.024009 0.0015651775 8.2843489e-22)
(1.02309 0.0013537904 4.0343206e-23)
(1.0223765 0.00089165301 -1.6654502e-22)
(1.0218499 0.00039467248 0)
(0.71357263 -0.1524141 2.3192144e-20)
(0.7540141 -0.12129571 -8.1679198e-22)
(0.77621329 0.089507258 -2.9233964e-20)
(0.7762785 0.26293795 -1.1219041e-20)
(0.76060569 0.28504098 5.8187039e-20)
(0.74533444 0.21305523 8.795529e-20)
(0.73944046 0.032085946 2.1746566e-21)
(0.77858268 -0.18186089 -1.7382892e-19)
(0.87124423 -0.28211648 -6.39947e-21)
(0.97514559 -0.27941624 -1.3024499e-19)
(1.0646422 -0.20861153 -7.7483557e-21)
(1.1286492 -0.066481793 0)
(1.1368981 0.12759031 0)
(1.0889921 0.24667819 3.7484839e-20)
(1.0165661 0.2534621 -5.7119313e-20)
(0.94367483 0.19312583 -2.1098348e-20)
(0.88962809 0.1038511 2.5852973e-21)
(0.89547513 0.035201651 -3.6635485e-22)
(0.9232426 -0.006685708 4.5510423e-21)
(0.95213032 -0.030666132 -1.3125072e-21)
(0.97945804 -0.040878506 6.044714e-23)