/*--------------------------------*- C++ -*----------------------------------*\
  =========                 |
  \\      /  F ield         | OpenFOAM: The Open Source CFD Toolbox
   \\    /   O peration     | Website:  https://openfoam.org
    \\  /    A nd           | Version:  8
     \\/     M anipulation  |
\*---------------------------------------------------------------------------*/
FoamFile
{
    version     2.0;
    format      ascii;
    class       volVectorField;
    location    "399.966377299886858";
    object      U_0;
}
// * * * * * * * * * * * * * * * * * * * * * * * * * * * * * * * * * * * * * //

dimensions      [0 1 -1 0 0 0 0];

internalField   nonuniform List<vector> 
9200
(
(1.0363469 0.00065463008 -2.7168507e-24)
(1.0365133 0.0020702338 9.1302613e-22)
(1.0343031 0.00064644823 0)
(1.0367914 0.0033203667 -4.8282108e-22)
(1.0344347 0.0020620478 6.8606027e-22)
(1.0334491 0.00063581133 0)
(1.0371602 0.0045488548 -4.9010477e-23)
(1.0346926 0.0033062184 5.9369489e-24)
(1.0335745 0.002036518 0)
(1.0322156 0.00061096723 0)
(1.0375799 0.005678204 9.9713005e-22)
(1.0350399 0.0045369611 6.6215267e-22)
(1.033819 0.003270393 4.0145362e-22)
(1.0323154 0.0019695803 2.3940599e-23)
(1.0312479 0.00057977986 3.9298983e-25)
(1.0380349 0.0067092043 9.7181241e-22)
(1.0354874 0.0056789413 -3.3098882e-23)
(1.0341538 0.0045007656 1.3572555e-21)
(1.0325239 0.0031668735 5.6449109e-22)
(1.0313333 0.0018780851 3.0236177e-23)
(1.0303094 0.00054192353 -9.7017456e-22)
(1.0385016 0.0076035212 8.7975308e-22)
(1.036039 0.0067371078 9.9668213e-22)
(1.0346012 0.0056723665 -8.2899735e-22)
(1.0327987 0.0043692687 -6.3008274e-23)
(1.0315158 0.0030186889 4.8745111e-22)
(1.0303787 0.0017623845 4.9662102e-22)
(1.0294811 0.00050276283 9.512978e-23)
(1.038951 0.0083029299 1.5234262e-22)
(1.0367248 0.0076803516 8.1400797e-22)
(1.0351699 0.0068076865 1.0113705e-21)
(1.0331607 0.0055421942 7.245231e-23)
(1.031745 0.0041635707 -1.317451e-21)
(1.0305348 0.0028263463 -5.8232762e-22)
(1.0295424 0.0016392105 -5.0624946e-22)
(1.0287363 0.00046566393 8.3418183e-22)
(1.0393571 0.0087477822 -1.0429418e-21)
(1.037548 0.0084631284 1.0213258e-21)
(1.0358853 0.0078944386 3.1250295e-23)
(1.033624 0.0067342458 4.9202716e-22)
(1.0320289 0.0052883951 1.9501017e-22)
(1.0307139 0.0038846975 -1.9196656e-21)
(1.0296861 0.002620682 -1.6831379e-24)
(1.0287939 0.00151954 -8.3279091e-22)
(1.0280716 0.00043345532 -1.7048623e-21)
(1.0397296 0.0089577146 4.0209175e-22)
(1.0385577 0.0090765689 -6.0887286e-22)
(1.0367637 0.0089324371 -4.442745e-23)
(1.0342048 0.0079685163 -2.2407382e-22)
(1.0323626 0.0064510977 -2.2026062e-22)
(1.0309044 0.0049124368 3.6092607e-22)
(1.0298423 0.0035840095 6.6746118e-22)
(1.028934 0.0024214988 1.033713e-21)
(1.0281304 0.0014133444 5.9541974e-22)
(1.0274723 0.00040691231 1.5292519e-22)
(1.0402129 0.0086652784 -3.8260275e-22)
(1.0398779 0.0093515033 1.2865122e-23)
(1.0378063 0.0099482307 8.3883416e-22)
(1.0349238 0.0092973591 -9.0410433e-22)
(1.0327404 0.007701221 5.5107703e-22)
(1.031077 0.0059563582 -1.7445386e-21)
(1.0299921 0.0044985803 1.2816739e-22)
(1.0290845 0.0032927637 1.4662767e-21)
(1.0282747 0.0022480925 -6.8766707e-22)
(1.0275341 0.0013243301 1.5523302e-21)
(1.0269277 0.00038587905 -1.8898335e-22)
(1.0406153 0.0077672661 4.4331821e-22)
(1.0415717 0.0095339768 -3.5574467e-23)
(1.0389939 0.01099734 -9.2457454e-22)
(1.0357446 0.010785923 0)
(1.0330961 0.0091034219 4.3675287e-23)
(1.0312064 0.0070664506 -4.9047329e-22)
(1.0300931 0.0053849025 -3.2748167e-22)
(1.0292294 0.0040971972 -7.3355942e-22)
(1.0284352 0.0030435812 -4.4455907e-22)
(1.0276848 0.0021084704 -8.572708e-22)
(1.0269911 0.0012516705 -5.4527e-22)
(1.0264291 0.00036871906 1.3346399e-22)
(1.0410535 0.0061274617 1.4215598e-22)
(1.044175 0.009500218 -5.4023933e-22)
(1.0406272 0.012173551 0)
(1.0365844 0.012493826 0)
(1.0333238 0.010735685 -2.4907277e-22)
(1.0312296 0.0082869346 -4.647528e-22)
(1.0301124 0.0062630771 -2.4266335e-22)
(1.0293284 0.0048297845 9.4904371e-22)
(1.0286064 0.0037629409 1.1217966e-22)
(1.0278605 0.0028501926 5.4092967e-24)
(1.0271461 0.002000507 7.9984272e-22)
(1.0264916 0.0011890348 -6.9734413e-22)
(1.0259712 0.00035279476 1.658624e-21)
(1.0415482 0.0035399927 -2.5507667e-21)
(1.0476622 0.0089649479 1.2995387e-22)
(1.0429993 0.013487006 -8.3007499e-22)
(1.0376126 0.014523959 4.0207442e-22)
(1.0333867 0.012680884 -1.5014302e-22)
(1.0310276 0.0096473066 -2.5810835e-22)
(1.0299848 0.0071364433 3.120228e-22)
(1.0293569 0.0054816785 3.3872485e-23)
(1.0287607 0.0043845036 1.1978131e-21)
(1.0280683 0.003519973 1.1272404e-21)
(1.0273331 0.0027089354 2.5307828e-22)
(1.0266462 0.0019112361 7.3664265e-22)
(1.0260306 0.0011282515 4.7151219e-22)
(1.0255526 0.00033592404 -4.198387e-22)
(1.0421544 -0.00010550205 3.6924265e-21)
(1.0521868 0.0078404013 4.5237206e-21)
(1.0462208 0.015104983 -3.4610704e-22)
(1.0389725 0.017098688 3.6341836e-23)
(1.0332753 0.015062165 -8.0367358e-23)
(1.0304786 0.011201578 4.580115e-22)
(1.0295898 0.0079965437 3.1929944e-22)
(1.029269 0.0060225772 -3.7431114e-22)
(1.0288903 0.0048840557 -2.1621975e-22)
(1.0282952 0.004089756 -1.5355476e-22)
(1.0275686 0.0033619733 -1.5483389e-23)
(1.0268346 0.0025982419 -2.8239563e-22)
(1.0261791 0.0018247709 -7.562919e-22)
(1.0256073 0.0010623075 3.1355569e-22)
(1.0251738 0.00031667724 -2.6426124e-22)
(1.0426806 -0.0048001452 5.6929795e-21)
(1.0576871 0.0060437087 -4.2558579e-21)
(1.0505622 0.017053522 1.1043695e-21)
(1.0407403 0.020435267 -6.9520159e-22)
(1.0329085 0.018085799 1.3276081e-22)
(1.0294292 0.013044378 -8.4023748e-22)
(1.0287612 0.0088436254 -4.0569754e-22)
(1.0289701 0.0064057302 8.564943e-23)
(1.0289712 0.0052067748 -1.8403846e-22)
(1.0285511 0.0045339318 -6.2674312e-22)
(1.0278522 0.0039321074 -1.720261e-21)
(1.0270805 0.0032521878 1.3078992e-23)
(1.026358 0.0024904799 2.24873e-22)
(1.0257457 0.0017275612 1.9035762e-22)
(1.0252238 0.00098672764 1.2069999e-22)
(1.0248362 0.00029461587 2.6740364e-22)
(1.0430585 -0.010587031 0)
(1.0637712 0.0035571091 -6.4968281e-21)
(1.0559006 0.01947137 1.0372189e-21)
(1.0429887 0.024790068 0)
(1.0322322 0.021971162 0)
(1.027733 0.015277685 0)
(1.0273493 0.0096763485 2.2757972e-22)
(1.028311 0.0065629347 5.0987649e-22)
(1.0289728 0.0052946584 9.9808023e-22)
(1.0288371 0.0047891524 5.6857402e-22)
(1.0282084 0.0044024522 2.2476025e-22)
(1.0273946 0.003850451 3.8389309e-22)
(1.0265949 0.0031460482 7.5435343e-23)
(1.0259067 0.0023632862 -2.6475288e-22)
(1.0253507 0.0016110536 -1.5477524e-22)
(1.0248832 0.0009002798 -1.2711686e-22)
(1.0245411 0.00027027094 0)
(1.0433077 -0.017418456 1.0565854e-20)
(1.0705881 0.00022724577 1.4906563e-20)
(1.06188 0.022355677 -7.4160633e-21)
(1.0455493 0.030545574 -1.9749859e-22)
(1.0311063 0.026988993 7.6551478e-22)
(1.02521 0.018016459 0)
(1.0251889 0.010476668 1.6478903e-21)
(1.027178 0.006399885 -5.9741343e-22)
(1.0288019 0.0050152708 -3.9914337e-22)
(1.0292201 0.0048201332 1.0889335e-21)
(1.02868 0.0047278902 -3.3432937e-22)
(1.0278136 0.00439318 2.8659273e-22)
(1.0269021 0.0037765598 3.2578784e-22)
(1.0261156 0.0030084106 -9.848017e-22)
(1.0254898 0.0022028099 -4.8791265e-22)
(1.025 0.0014728006 -7.9349577e-22)
(1.0245877 0.00080492949 -3.526536e-22)
(1.0242879 0.00024490972 -2.3990093e-22)
(1.043047 -0.025282368 -1.3773938e-21)
(1.0779506 -0.004056293 1.0779478e-20)
(1.0688065 0.025784952 2.0168851e-21)
(1.0481219 0.037654592 -2.0198362e-21)
(1.0293705 0.033508153 -1.8652492e-22)
(1.021579 0.021406345 -1.411229e-21)
(1.0220593 0.011222171 -4.2583106e-21)
(1.0254562 0.0058066399 -3.0611844e-21)
(1.0284064 0.0042230049 -7.5962986e-22)
(1.0296628 0.004447206 -6.6857449e-22)
(1.0293479 0.0048570278 -2.5075608e-22)
(1.0284107 0.0048531685 -6.3307878e-22)
(1.0273215 0.0044071196 -2.6855458e-22)
(1.0263782 0.0036554978 2.1064768e-22)
(1.0256593 0.0028160538 3.0193911e-22)
(1.0251187 0.0020045678 1.1488906e-22)
(1.024699 0.0013163796 -2.053632e-22)
(1.024338 0.0007051232 -3.4108538e-23)
(1.0240745 0.00022019393 -1.6104615e-22)
(1.0421663 -0.033930213 -1.0821885e-20)
(1.0857418 -0.009248828 -1.580102e-20)
(1.076629 0.029809766 2.5634625e-20)
(1.0507426 0.046394017 5.8818376e-22)
(1.0269364 0.041437601 -9.2553795e-22)
(1.0165686 0.02569452 -7.5461527e-22)
(1.017669 0.011888609 5.6592265e-22)
(1.0229753 0.0046500191 1.7134067e-22)
(1.0277547 0.0027375735 -3.6614933e-22)
(1.0301967 0.0035338517 -8.7845884e-22)
(1.0303143 0.0047425752 -9.2517467e-22)
(1.029207 0.0052051027 4.0081076e-22)
(1.0279075 0.0050449725 4.6896906e-22)
(1.0267268 0.0043579555 -4.7830046e-23)
(1.0258519 0.0034480277 2.757054e-22)
(1.0252466 0.002558838 3.0995778e-22)
(1.0248044 0.0017734792 1.8859723e-22)
(1.0244503 0.0011499121 3.4761869e-22)
(1.0241325 0.00060660822 9.1320233e-23)
(1.023897 0.00019779456 1.3249195e-22)
(1.0385451 -0.043561045 -1.8278765e-21)
(1.0935719 -0.016135847 -2.651122e-20)
(1.0858408 0.034376081 4.7413613e-22)
(1.0534311 0.057046392 -4.9963234e-21)
(1.0235577 0.051037213 -2.5315815e-21)
(1.0102621 0.030822238 -1.8747136e-21)
(1.0116329 0.012464833 5.0413348e-21)
(1.0195224 0.0027813975 6.8321443e-21)
(1.0267678 0.00037426681 3.4874265e-22)
(1.0308706 0.0018716569 0)
(1.0316741 0.0042064823 5.6815796e-22)
(1.0303817 0.0055216274 7.1377097e-22)
(1.0286695 0.005728781 -2.3282601e-22)
(1.0271785 0.0051554838 -5.4509104e-22)
(1.0260785 0.0041695809 -3.9587634e-22)
(1.0253635 0.0031366015 3.1620175e-22)
(1.0248983 0.0022430654 3.7344998e-22)
(1.0245541 0.0015218348 5.1732736e-23)
(1.0242536 0.0009837615 5.4201512e-23)
(1.0239671 0.00051516091 4.0803969e-23)
(1.0237503 0.00017909472 8.1998272e-23)
(1.0311117 -0.053332193 4.8029439e-21)
(1.0975002 -0.024307655 -2.9279969e-20)
(1.0973497 0.039092516 -2.3332428e-20)
(1.0578727 0.069487167 1.6629899e-20)
(1.019258 0.062479311 -1.035175e-21)
(1.0023595 0.036990104 -6.9369338e-22)
(1.0040088 0.012927128 0)
(1.0148166 3.9015384e-06 -3.7582365e-22)
(1.02535 -0.0030874941 -1.1835274e-21)
(1.0317205 -0.0007299871 -7.9518392e-22)
(1.0335241 0.0031057083 3.9076268e-22)
(1.0321525 0.0057067646 2.1433014e-22)
(1.0297899 0.0065221748 -1.5260354e-22)
(1.027741 0.0061191193 3.4232409e-22)
(1.0263286 0.0050351161 1.0979376e-22)
(1.0254553 0.0038054885 -1.2177041e-22)
(1.0249508 0.0027265649 -3.9036087e-23)
(1.0246309 0.0018895478 9.4117732e-23)
(1.0243693 0.0012662785 2.1124804e-22)
(1.0241051 0.0008282511 3.5566377e-23)
(1.0238362 0.00043557635 2.1563745e-23)
(1.0236286 0.00016505178 0)
(1.0207571 -0.063108288 -1.4270148e-21)
(1.0960491 -0.033763631 2.0558509e-20)
(1.1059705 0.04254672 -4.1918019e-22)
(1.0667681 0.083002282 2.2328967e-20)
(1.0158979 0.075712146 -2.346204e-21)
(0.99245122 0.044352583 2.6391578e-21)
(0.99471393 0.013197681 9.3849849e-22)
(1.0086355 -0.0038316727 4.5569004e-21)
(1.0233842 -0.0078978958 7.4645711e-22)
(1.0327955 -0.0045189468 7.1937518e-23)
(1.0360211 0.0012773954 -1.1951929e-23)
(1.0346462 0.0056911379 -3.9622998e-22)
(1.0314747 0.0074812783 -9.1364605e-23)
(1.0285432 0.0073382828 1.913419e-21)
(1.0265851 0.0061306179 9.1173915e-22)
(1.0254902 0.0046266262 3.564201e-22)
(1.0249269 0.003278594 -2.5169453e-22)
(1.0246407 0.0022427028 -1.1284119e-22)
(1.0244508 0.0015251836 6.3989038e-23)
(1.0242464 0.0010240023 -1.0656393e-23)
(1.0239987 0.00069202165 0)
(1.0237335 0.00037118713 6.4255768e-24)
(1.0235259 0.00015619534 -4.3916894e-24)
(1.0077083 -0.072708095 -9.1021192e-21)
(1.0911068 -0.04345416 6.37177e-20)
(1.1062714 0.044166039 -5.513658e-20)
(1.0801389 0.098506892 -1.5238259e-20)
(1.0154565 0.091112805 7.0017004e-21)
(0.98131331 0.052969751 0)
(0.98324318 0.013386351 1.9391323e-22)
(1.0012342 -0.0088726846 1.8127159e-21)
(1.0206797 -0.014368778 1.7865827e-21)
(1.0341375 -0.0097785192 -3.175722e-22)
(1.0393585 -0.0014922164 1.6609181e-22)
(1.03809 0.0053944262 2.5670894e-22)
(1.0338879 0.0086730764 -1.0235748e-22)
(1.0297296 0.0089608508 5.6869408e-22)
(1.0268897 0.0075774491 -4.0676052e-22)
(1.0254075 0.0056905226 -1.2851326e-21)
(1.0247689 0.0039571108 -1.0638716e-21)
(1.0245382 0.0026318724 -3.089589e-23)
(1.0244499 0.0017314121 -4.2306801e-22)
(1.0243541 0.0011773019 4.1810794e-22)
(1.0241775 0.00081010709 1.8002845e-22)
(1.0239266 0.00058123012 -1.5544558e-22)
(1.0236524 0.00032392611 6.7477614e-23)
(1.0234361 0.00015269088 -1.9492257e-24)
(0.99110545 -0.081778885 8.1595043e-21)
(1.0805407 -0.05237185 5.5455486e-20)
(1.1005225 0.045757275 5.6601802e-21)
(1.0814663 0.11405142 7.6226365e-20)
(1.0150704 0.1100189 -8.8134673e-21)
(0.97041492 0.063745547 -1.0977442e-20)
(0.96924198 0.013238178 1.5835645e-22)
(0.99256597 -0.015172533 -6.710994e-21)
(1.0172704 -0.02267496 1.3466908e-21)
(1.0357462 -0.016818304 4.3559578e-23)
(1.0437437 -0.0054616037 -2.1276472e-22)
(1.0427814 0.0047297708 -8.6305063e-22)
(1.0372709 0.010152169 5.760932e-22)
(1.0314253 0.011156668 -1.0306462e-22)
(1.0273053 0.0095617505 -1.3776584e-21)
(1.0251729 0.007114028 8.308265e-23)
(1.0243862 0.0048438841 -2.0096432e-22)
(1.0242413 0.0030976639 -4.1049808e-23)
(1.0243136 0.001930852 0)
(1.0243761 0.0012392543 -4.3003087e-23)
(1.0243298 0.00086895201 -4.421843e-24)
(1.0241519 0.00063600668 -1.0456684e-24)
(1.0238801 0.00049936939 4.5037981e-23)
(1.0235861 0.00029454015 -8.516467e-23)
(1.0233537 0.00015434961 -1.2610545e-23)
(0.97202267 -0.090257693 2.0964022e-21)
(1.0654906 -0.061030346 -3.2177333e-20)
(1.0878386 0.049111996 -2.0301569e-20)
(1.065873 0.12902664 -9.7311487e-21)
(1.0102538 0.13039082 -2.0682215e-20)
(0.96035546 0.076993882 3.9062667e-21)
(0.95330793 0.013114973 1.1917043e-22)
(0.98195064 -0.023023839 4.6185427e-22)
(1.0134718 -0.032896014 2.5871357e-21)
(1.0374587 -0.025985498 -1.6516283e-21)
(1.0493803 -0.010911885 -9.1473176e-22)
(1.0490542 0.003553759 2.3262613e-22)
(1.0419307 0.01199336 1.9012021e-22)
(1.0337978 0.014118592 -3.9632981e-22)
(1.0278726 0.012301524 -5.7582823e-22)
(1.024763 0.0090727421 2.0175799e-21)
(1.0236899 0.0060206008 3.5925787e-21)
(1.0236475 0.0036966647 6.799907e-23)
(1.0239498 0.0021403221 -1.9302882e-22)
(1.0242555 0.00125071 4.5917595e-23)
(1.0244035 0.00080245613 3.4584209e-22)
(1.024363 0.00061686788 2.9021446e-22)
(1.0241577 0.00050833011 -3.3911995e-22)
(1.0238496 0.00044774292 2.0650942e-22)
(1.0235277 0.00028255823 -8.3638005e-23)
(1.0232748 0.00016063807 1.7707179e-24)
(0.95159632 -0.09805373 1.3788912e-22)
(1.0469257 -0.068976739 -3.2338722e-20)
(1.0710884 0.052631571 8.4998202e-20)
(1.0476984 0.14359887 -6.388953e-20)
(0.99940744 0.14906688 3.0252645e-20)
(0.95138186 0.09235582 1.0281814e-20)
(0.93686486 0.013582929 5.9993322e-21)
(0.96921408 -0.032635647 5.1990318e-21)
(1.0090111 -0.045135301 -3.0178345e-21)
(1.0394758 -0.037573764 8.9573101e-22)
(1.0565058 -0.01818402 6.222947e-22)
(1.0573091 0.0017104135 4.2568181e-21)
(1.0482185 0.014286627 -2.4189345e-21)
(1.0370522 0.018092805 -3.311734e-22)
(1.0286287 0.016058549 -4.0574874e-22)
(1.0241225 0.011776921 5.4778455e-22)
(1.0225853 0.007616143 -5.2188816e-22)
(1.022643 0.0044657612 7.2128544e-22)
(1.0232593 0.0023806674 -3.7665607e-22)
(1.0239081 0.0011949016 2.9424999e-22)
(1.0243445 0.00064338446 0)
(1.0245114 0.00044533353 2.6920139e-22)
(1.0244368 0.00043064627 -8.1927689e-23)
(1.0241837 0.00042899003 0)
(1.0238268 0.00042612026 -2.6883853e-22)
(1.0234733 0.00028642178 1.3380975e-24)
(1.0231958 0.00017107911 1.5303545e-23)
(0.93064657 -0.10517124 4.3699674e-22)
(1.0256422 -0.076248349 -3.0750437e-21)
(1.050476 0.056358368 7.3872217e-20)
(1.0284271 0.15755308 -8.0150885e-21)
(0.98316305 0.16591867 1.6316708e-21)
(0.9410834 0.10817996 -5.802383e-21)
(0.92073436 0.015190687 -4.3187059e-22)
(0.95461848 -0.043760167 -3.6256364e-21)
(1.0033915 -0.059686098 -9.4159621e-22)
(1.0419602 -0.051456653 -1.3157782e-21)
(1.0650652 -0.027883719 8.3374921e-21)
(1.0680999 -0.00099787355 3.0125022e-21)
(1.05659 0.017134825 1.6410159e-21)
(1.0414061 0.023381467 -6.6189855e-22)
(1.0296005 0.021154796 -1.0666457e-21)
(1.0231622 0.015474332 -4.2723217e-22)
(1.0209427 0.009787406 -3.0587022e-21)
(1.0210871 0.0054708419 -4.0313252e-22)
(1.0221249 0.0026496764 -2.0992708e-22)
(1.0232455 0.0010472228 -1.604388e-21)
(1.0240931 0.00034186903 3.7702695e-22)
(1.0245534 0.00014235799 2.1483926e-22)
(1.0246774 0.0001813322 -9.3328738e-24)
(1.0245364 0.00031354577 0)
(1.0242206 0.0003965223 0)
(1.0238103 0.00043078288 2.1529307e-23)
(1.0234198 0.00030459775 -1.3097622e-22)
(1.0231129 0.00018532737 -1.9908928e-23)
(0.90964468 -0.1114631 0)
(1.0025818 -0.082723217 -1.5798951e-20)
(1.0274873 0.060123383 -6.8434559e-20)
(1.0059717 0.17107495 -2.6356568e-20)
(0.9629781 0.1816476 -2.2070734e-20)
(0.92615711 0.12300794 2.9612498e-21)
(0.90478367 0.018097428 -4.3242282e-21)
(0.93873734 -0.055926922 -2.8172753e-21)
(0.99651724 -0.076554669 4.9309545e-21)
(1.0443326 -0.06785963 -1.9116013e-21)
(1.074742 -0.039887672 -8.9656837e-22)
(1.0816722 -0.0048023528 -9.4033279e-22)
(1.0676323 0.020640723 8.0577347e-21)
(1.0471292 0.03030161 -1.6122246e-21)
(1.0307789 0.027964438 -6.3204823e-22)
(1.0217559 0.020447351 -1.6786798e-21)
(1.0185905 0.012709012 -2.0417638e-22)
(1.0188069 0.0067920387 -1.041419e-21)
(1.020393 0.0029528667 1.2575836e-21)
(1.022156 0.00078174418 -1.3756724e-21)
(1.023574 -0.0001606168 3.432672e-22)
(1.0244608 -0.00036729835 2.2663239e-22)
(1.0248516 -0.00023274394 5.2955958e-23)
(1.0248818 1.5186186e-05 -1.0625207e-21)
(1.02465 0.00026379718 -1.2834252e-22)
(1.024255 0.00040492641 -1.104706e-23)
(1.0237902 0.00046430584 3.1905839e-22)
(1.0233593 0.00033761537 -7.9144193e-23)
(1.0230242 0.00020267329 -9.9918385e-24)
(0.88898345 -0.11714127 -8.7359557e-21)
(0.97876415 -0.088679 0)
(1.0032344 0.063635826 0)
(0.98225708 0.18370828 0)
(0.94057242 0.19630451 7.641463e-21)
(0.9071244 0.13663896 -9.9678844e-21)
(0.88813818 0.021706198 -3.1605217e-22)
(0.92197833 -0.068704111 -1.3784055e-21)
(0.98831666 -0.095569462 2.5590032e-21)
(1.046361 -0.086878014 1.3819454e-20)
(1.0854839 -0.054315638 -4.7499877e-21)
(1.0972014 -0.01001964 3.095281e-21)
(1.0814493 0.025097892 -3.8399971e-21)
(1.0545811 0.039424312 2.9540301e-21)
(1.0322072 0.036854504 1.3295543e-21)
(1.0197665 0.027001689 -5.480653e-22)
(1.0153239 0.016568713 -2.3307692e-21)
(1.0155926 0.0085107218 1.8197999e-22)
(1.0178791 0.0032913939 1.8393773e-21)
(1.0204998 0.00036063935 7.5017572e-22)
(1.0226845 -0.00090996523 -4.2719818e-22)
(1.0241661 -0.0011525653 -3.4822457e-22)
(1.0249544 -0.0008994956 8.057826e-22)
(1.025204 -0.00047550996 -6.7802206e-22)
(1.0251055 -5.8420886e-05 1.2256742e-22)
(1.0247634 0.00027434595 -2.1523039e-22)
(1.024284 0.00044902489 4.844317e-22)
(1.0237606 0.00052995357 3.0381849e-23)
(1.0232905 0.00038249217 2.74711e-22)
(1.022928 0.00022237586 -3.4905181e-23)
(0.86708064 -0.12262234 -6.8501067e-21)
(0.95489024 -0.093569095 -1.0783117e-20)
(0.97856912 0.067064083 0)
(0.95795768 0.19548858 0)
(0.9174202 0.20977804 0)
(0.88648949 0.14889569 0)
(0.87052071 0.025206353 0)
(0.90484357 -0.081715237 3.8940596e-22)
(0.97874724 -0.11643943 -2.9097902e-21)
(1.0475016 -0.10813573 -2.1939691e-20)
(1.0965 -0.071123586 -1.2744649e-21)
(1.1143004 -0.016515434 -1.2596708e-20)
(1.0974351 0.030541984 1.7569264e-20)
(1.063544 0.051107948 -2.2228915e-21)
(1.0339216 0.048529749 -1.93034e-22)
(1.0169846 0.035437922 3.2838585e-22)
(1.0108999 0.021547629 -2.640461e-22)
(1.0112079 0.010707137 1.3010127e-21)
(1.0143745 0.0036594799 -8.5726148e-22)
(1.0181124 -0.00027563616 -1.2815058e-22)
(1.0213119 -0.0019779839 5.9834145e-23)
(1.023586 -0.0022740929 -2.9187834e-22)
(1.0249276 -0.0018796119 -4.8109557e-23)
(1.0255157 -0.0012401821 -3.3604255e-22)
(1.0255791 -0.00058883504 -1.16444e-22)
(1.0253289 -5.0314407e-05 1.1235598e-21)
(1.0248665 0.00033602246 2.3724175e-22)
(1.0243076 0.00053481026 -2.2212058e-22)
(1.0237228 0.0006058305 5.4147371e-24)
(1.0232136 0.00043537652 -1.6039488e-22)
(1.0228235 0.00024369973 2.9841556e-23)
(0.84391012 -0.12805496 1.3999183e-20)
(0.9297808 -0.099080521 -5.7310073e-21)
(0.95425759 0.070466241 -4.2525371e-20)
(0.93390796 0.20644061 -3.9285965e-20)
(0.89441738 0.22211722 0)
(0.86538319 0.15986749 0)
(0.85221882 0.028004283 -2.1547858e-22)
(0.88768109 -0.09473334 -1.061333e-20)
(0.96748086 -0.13848497 3.227724e-21)
(1.0469841 -0.13115162 -2.225294e-20)
(1.1063704 -0.089549485 4.586249e-21)
(1.1310959 -0.023830135 3.5249765e-20)
(1.113918 0.037473252 -3.0057624e-21)
(1.0732137 0.065693656 7.7703216e-22)
(1.0356642 0.063240714 2.1866448e-22)
(1.0131406 0.046296429 -3.0770876e-22)
(1.0049938 0.027814637 5.3968965e-21)
(1.0053888 0.013436598 -1.8734907e-22)
(1.0096459 0.0040237628 -3.9375666e-21)
(1.0148126 -0.0012058699 1.3877658e-21)
(1.0193323 -0.0034628283 -2.0198907e-21)
(1.0226452 -0.0038309835 -3.8005115e-22)
(1.0247166 -0.0032443607 1.6095319e-21)
(1.0257702 -0.002324735 5.4225411e-23)
(1.0260955 -0.0013918397 -6.5691664e-22)
(1.0259506 -0.00058349555 7.3464009e-22)
(1.0255368 2.793434e-05 3.3167136e-22)
(1.0249583 0.00044537608 2.2280804e-22)
(1.0243174 0.00064856259 -3.0196818e-22)
(1.0236728 0.00069659635 -2.134096e-23)
(1.023126 0.0004952124 -2.135858e-23)
(1.0227103 0.00026600375 5.1151628e-24)
(0.82094971 -0.13312538 -5.6321479e-21)
(0.9030338 -0.1052012 4.3605316e-21)
(0.92960935 0.072388756 4.4717608e-20)
(0.91091441 0.2163198 4.8004519e-20)
(0.8723571 0.23317668 0)
(0.84488543 0.1695764 0)
(0.83388218 0.030151096 0)
(0.87057504 -0.10761621 1.0719345e-21)
(0.95472347 -0.16084704 -2.2385183e-20)
(1.0429677 -0.15492304 -3.629089e-20)
(1.1139275 -0.10867812 6.6936512e-21)
(1.14526 -0.031377967 7.9810962e-21)
(1.1283673 0.046737299 -5.168655e-20)
(1.0807729 0.084128025 1.8796858e-20)
(1.0362468 0.081426371 -2.9698894e-21)
(1.0079903 0.059810043 0)
(0.99717822 0.035590601 1.4408503e-21)
(0.997814 0.016728644 -1.7608018e-21)
(1.0034543 0.0043589353 -1.2648483e-21)
(1.0104036 -0.0025313522 6.0182236e-22)
(1.0166093 -0.0054908181 -5.0200048e-22)
(1.0212678 -0.0059481575 8.8163375e-22)
(1.0242905 -0.0051083134 -5.7135088e-22)
(1.025948 -0.003810094 -1.0230686e-21)
(1.0266226 -0.0025022994 7.1780574e-22)
(1.0266552 -0.0013739848 -8.7347564e-23)
(1.026294 -0.00047763082 2.4549581e-23)
(1.0257216 0.00016716065 2.6068851e-23)
(1.0250322 0.00059289385 -5.7554233e-22)
(1.0243116 0.00077975124 -2.7329747e-22)
(1.0236097 0.00079946461 4.5757696e-23)
(1.0230282 0.00055941386 -4.9399775e-23)
(1.0225886 0.00028872124 1.5097509e-22)
(0.79864951 -0.13777869 -8.0692372e-21)
(0.8759547 -0.11086923 3.4844145e-21)
(0.9037507 0.072020566 4.6911124e-20)
(0.88823101 0.22508503 6.2899415e-20)
(0.85173601 0.24308719 -2.3779525e-20)
(0.82567867 0.17779408 1.4260095e-21)
(0.81609495 0.03169225 -5.5596255e-20)
(0.85360997 -0.12022075 1.877484e-20)
(0.9407897 -0.18292315 8.209096e-21)
(1.0354821 -0.17858265 8.7193832e-20)
(1.1141372 -0.12847487 -5.5124224e-20)
(1.154756 -0.03994996 -8.425241e-20)
(1.1416104 0.058510374 1.8571727e-21)
(1.0848447 0.10671695 1.4494578e-20)
(1.0329345 0.10364647 4.2962091e-21)
(1.0004763 0.076210768 1.88002e-21)
(0.98718724 0.045085336 7.0489128e-22)
(0.98809091 0.020557211 -5.7884831e-22)
(0.99553748 0.0045843314 -5.0515274e-22)
(1.004682 -0.0043721152 5.882777e-23)
(1.0130005 -0.0082116955 1.4824261e-21)
(1.0193728 -0.0087807499 -1.5355767e-21)
(1.0236221 -0.0076094568 -4.2849152e-22)
(1.0260582 -0.0058083906 1.38067e-21)
(1.0271741 -0.0040000668 -1.4471392e-21)
(1.0274299 -0.00244756 -5.8896477e-22)
(1.0271661 -0.0012171122 -6.16099e-22)
(1.0265985 -0.00028989639 2.2973345e-23)
(1.0258797 0.00035823718 -4.2342404e-22)
(1.0250845 0.00076630306 5.1244637e-23)
(1.0242898 0.00092549878 -1.3482963e-22)
(1.0235349 0.00090705236 -2.1578212e-23)
(1.0229206 0.00062608079 6.201765e-23)
(1.022459 0.00031138541 -3.704233e-22)
(0.77747321 -0.14197931 6.3406743e-21)
(0.84895946 -0.1160578 -4.5810987e-21)
(0.87707218 0.072129246 -7.9212373e-21)
(0.86546354 0.23259249 -3.0264382e-20)
(0.831734 0.25287488 8.8053714e-20)
(0.80785508 0.18479586 1.2988243e-19)
(0.79939722 0.032530339 9.5808136e-21)
(0.83703932 -0.13238033 0)
(0.92602578 -0.20424487 2.8926025e-20)
(1.0253098 -0.20176489 1.4056425e-19)
(1.1099612 -0.14795157 2.7184053e-20)
(1.1575313 -0.049534594 3.9825094e-20)
(1.1562178 0.070585902 0)
(1.0907666 0.13239969 2.3975743e-21)
(1.0256232 0.12930353 -1.4766965e-20)
(0.98872807 0.09558814 -3.5873502e-21)
(0.97442509 0.056135053 -6.0967554e-21)
(0.97582419 0.024968911 0)
(0.98561589 0.0045793195 2.4468591e-21)
(0.99745495 -0.0068639309 3.0507373e-21)
(1.0083614 -0.011801299 -1.4266326e-21)
(1.0168791 -0.012509703 1.4552238e-21)
(1.0226884 -0.010914518 0)
(1.0261212 -0.0084534597 -1.4292559e-21)
(1.0277915 -0.0059800629 1.0861104e-21)
(1.0283136 -0.0038684741 -8.5790656e-23)
(1.0281538 -0.0022057459 -5.9158864e-22)
(1.0276106 -0.00095336885 7.4755658e-22)
(1.0268576 -3.8390073e-05 1.5415224e-24)
(1.0260066 0.00058629662 -1.3419881e-21)
(1.0251148 0.00095850434 1.270032e-21)
(1.0242514 0.0010800824 4.0488435e-22)
(1.0234477 0.0010187556 0)
(1.0228035 0.00069395958 -2.6799185e-24)
(1.0223219 0.00033364155 -1.4559497e-22)
(0.75788261 -0.14570795 9.795802e-21)
(0.82265341 -0.12078888 -2.0927921e-20)
(0.85052118 0.071949852 4.0220169e-20)
(0.84225902 0.23980814 -3.20474e-21)
(0.8129913 0.26302948 3.0987003e-20)
(0.79036385 0.19366013 1.125854e-20)
(0.78371217 0.031590537 9.7758118e-20)
(0.82090681 -0.14348202 1.7222443e-21)
(0.91086482 -0.22468967 0)
(1.0128527 -0.2241355 -5.406322e-20)
(1.1026475 -0.16687319 6.5022061e-20)
(1.1557653 -0.060029457 -5.0425692e-21)
(1.165668 0.080532249 4.0994473e-20)
(1.103025 0.15963968 -3.66291e-20)
(1.0217212 0.15810804 -2.0728842e-21)
(0.97249397 0.11700834 -5.6528003e-21)
(0.95789148 0.068678957 -1.3032463e-20)
(0.96093511 0.029704798 -6.2693332e-21)
(0.97333527 0.0041647313 2.6567272e-21)
(0.98854549 -0.010173087 -5.9129816e-21)
(1.0025579 -0.016442325 2.9539682e-21)
(1.0137092 -0.0173344 -3.1913595e-21)
(1.0214724 -0.015215709 0)
(1.0261702 -0.011905586 -3.873032e-22)
(1.0285369 -0.0085569333 2.5242735e-22)
(1.0293711 -0.0057060022 8.6383058e-22)
(1.0293113 -0.0034837089 -1.3056092e-22)
(1.0287715 -0.0018242756 -5.5175405e-23)
(1.0279843 -0.00061055721 6.3811243e-22)
(1.0270689 0.0002585416 0)
(1.0261012 0.00083700375 1.1416765e-21)
(1.0251232 0.0011637054 1.4493734e-21)
(1.0241974 0.0012390976 -5.8528794e-22)
(1.0233492 0.0011316082 -6.4819249e-23)
(1.0226779 0.00076169517 -7.247585e-24)
(1.0221784 0.00035521423 5.659382e-22)
(0.74035822 -0.14895286 -9.4333624e-21)
(0.79764038 -0.12502872 -1.439122e-21)
(0.82468296 0.071555339 -3.042558e-20)
(0.81986184 0.24630739 -1.1418723e-21)
(0.79491223 0.27217978 -1.0574878e-19)
(0.77475606 0.20521012 -1.6200665e-19)
(0.76717505 0.035965153 -6.6733734e-23)
(0.80731333 -0.15634121 5.6733261e-20)
(0.89554573 -0.24384043 4.106834e-21)
(0.99865412 -0.2452042 5.3393833e-20)
(1.0911791 -0.18530724 -3.3597447e-21)
(1.1505823 -0.069600909 -5.0550028e-20)
(1.1641858 0.088367906 -3.48308e-21)
(1.114012 0.18746116 -4.2703252e-20)
(1.0247844 0.18949338 7.1985174e-20)
(0.95801778 0.1410239 -6.2943927e-21)
(0.93673361 0.081801205 3.9985266e-21)
(0.94304922 0.034514596 4.9914675e-21)
(0.95865895 0.0032349619 -5.1235572e-21)
(0.97777835 -0.014507756 -1.500329e-21)
(0.99547963 -0.022323518 1.3074901e-21)
(1.0097894 -0.023466755 -3.5900128e-21)
(1.0199636 -0.02072425 2.7034739e-21)
(1.026252 -0.016351075 0)
(1.0294947 -0.011867902 1.7156157e-22)
(1.0306972 -0.0080440852 1.5288541e-21)
(1.0307185 -0.0050902139 -1.0351294e-21)
(1.0301378 -0.0029186098 1.8025554e-21)
(1.0292756 -0.0013479776 -7.1207589e-24)
(1.0282855 -0.00021704576 -7.752072e-22)
(1.0272331 0.00058243773 -1.4237047e-21)
(1.0261656 0.0011024415 6.5158825e-22)
(1.0251107 0.0013750731 -4.7795723e-23)
(1.0241285 0.0014000058 -5.0725878e-22)
(1.0232403 0.0012435538 -1.2911753e-22)
(1.0225447 0.00082841454 -2.311968e-23)
(1.0220293 0.00037592032 2.4024471e-22)
(0.72537668 -0.15168745 -1.1462072e-21)
(0.77449347 -0.12872685 2.7438966e-20)
(0.80016605 0.070898951 -6.9132884e-20)
(0.79872775 0.2519882 -8.838387e-21)
(0.77824287 0.280541 1.2555788e-21)
(0.76040351 0.21508546 -1.4119717e-21)
(0.75244852 0.044992781 9.1768127e-20)
(0.79069321 -0.1627857 -2.3156087e-20)
(0.88142504 -0.26236464 0)
(0.9831737 -0.2649901 -1.2922811e-20)
(1.076155 -0.20249011 0)
(1.140874 -0.077953908 0)
(1.1550005 0.096611178 -5.4357745e-20)
(1.1111376 0.21322604 4.2964147e-21)
(1.0281945 0.22243076 1.5571383e-20)
(0.95245662 0.16862858 7.3610782e-21)
(0.91356559 0.095721219 -2.6578666e-21)
(0.92143575 0.038945252 4.1517158e-21)
(0.94166844 0.0014102986 3.8041763e-21)
(0.96492253 -0.020047413 1.5253687e-21)
(0.98704241 -0.02962317 -3.2625331e-21)
(1.0050592 -0.031109935 2.2510638e-21)
(1.0181521 -0.027661771 2.5857058e-22)
(1.0264237 -0.021996232 -1.4690891e-21)
(1.0307706 -0.016074803 -2.1497746e-22)
(1.032417 -0.010982667 4.2354019e-22)
(1.0324906 -0.0070704916 2.2358561e-22)
(1.0317952 -0.0042435513 -1.0515803e-21)
(1.0307866 -0.0022424139 -6.5879534e-23)
(1.0296702 -0.00081736977 -2.2368003e-21)
(1.0285196 0.00020426246 -9.2520698e-23)
(1.0273544 0.00092029869 1.928997e-23)
(1.0262013 0.00137324 -1.24376e-21)
(1.0250788 0.0015883522 -7.315267e-22)
(1.0240461 0.0015601175 9.847119e-22)
(1.0231219 0.001353496 6.7384622e-23)
(1.0224049 0.00089346781 -1.4642887e-22)
(1.0218755 0.00039564711 0)
(0.71329442 -0.15392514 2.0468502e-20)
(0.75376681 -0.13188439 -8.7566254e-22)
(0.77755988 0.069991199 -2.9413154e-20)
(0.77945569 0.25668456 -1.2624186e-20)
(0.76346606 0.28786012 4.9932671e-20)
(0.74772951 0.22434936 8.5578094e-20)
(0.73963205 0.052213681 2.2974785e-21)
(0.77318933 -0.16490769 -1.9149213e-19)
(0.86302277 -0.27767669 -5.8926548e-21)
(0.96744108 -0.28244062 -1.270341e-19)
(1.0589853 -0.2191395 -8.1291614e-21)
(1.1267172 -0.085611618 0)
(1.141931 0.10536805 0)
(1.0988562 0.23742143 4.0423209e-20)
(1.0263011 0.25370306 -6.3642425e-20)
(0.95222965 0.19919248 -2.3203985e-20)
(0.8947927 0.1124574 2.7396676e-21)
(0.89612235 0.042336177 -3.5475725e-22)
(0.9221941 -0.0013754312 4.0045653e-21)
(0.95018004 -0.026954867 -1.3428506e-21)
(0.97716517 -0.038540746 7.2585746e-23)
(0.99947347 -0.040446482 5.0891229e-22)
(1.0160276 -0.036245297 -3.0803794e-21)