/*--------------------------------*- C++ -*----------------------------------*\
  =========                 |
  \\      /  F ield         | OpenFOAM: The Open Source CFD Toolbox
   \\    /   O peration     | Website:  https://openfoam.org
    \\  /    A nd           | Version:  8
     \\/     M anipulation  |
\*---------------------------------------------------------------------------*/
FoamFile
{
    version     2.0;
    format      ascii;
    class       volVectorField;
    location    "399.966377299886858";
    object      UMean;
}
// * * * * * * * * * * * * * * * * * * * * * * * * * * * * * * * * * * * * * //

dimensions      [0 1 -1 0 0 0 0];

internalField   nonuniform List<vector> 
9200
(
(1.0295881 0.00020790357 -3.3800002e-24)
(1.0297601 0.00069568853 4.6523777e-22)
(1.0289105 0.00019607772 0)
(1.0300846 0.0011409872 -2.5482157e-22)
(1.029042 0.00067060149 3.5193889e-22)
(1.028637 0.00018421645 0)
(1.0305246 0.0016007442 -2.4535724e-23)
(1.029321 0.0010989697 -1.9408931e-23)
(1.028758 0.00063500627 0)
(1.0282723 0.00016404275 0)
(1.0310589 0.0020811936 5.7744494e-22)
(1.0296859 0.0015368114 4.5528508e-22)
(1.0290193 0.0010424992 2.0565721e-22)
(1.0283738 0.0005704209 1.1202864e-23)
(1.0279954 0.00014364066 4.236665e-25)
(1.0316596 0.0025763346 5.5076144e-22)
(1.0301277 0.0019953454 2.1126913e-23)
(1.0293589 0.0014548954 7.2398279e-22)
(1.0286081 0.0009400236 3.2281244e-22)
(1.0280853 0.00050091555 3.670153e-23)
(1.0277669 0.00011977132 -3.7579294e-22)
(1.0323118 0.0031025411 7.4244011e-22)
(1.030622 0.0024619151 5.100242e-22)
(1.0297683 0.0018907419 -4.2533166e-22)
(1.0289081 0.0013077771 -4.116877e-23)
(1.0283015 0.00082992557 2.0941723e-22)
(1.0278457 0.00041629394 2.2210545e-22)
(1.0275757 9.5543877e-05 5.0569016e-23)
(1.0329901 0.0036507789 6.1688797e-22)
(1.0311571 0.0029579988 5.2641535e-22)
(1.0302156 0.0023298044 5.8420361e-22)
(1.0292694 0.0017027426 1.0545666e-22)
(1.0285756 0.001149832 -6.5285932e-22)
(1.028045 0.00069596579 -2.8843754e-22)
(1.0276466 0.00032774174 -1.3413298e-22)
(1.027447 7.0266952e-05 2.367478e-22)
(1.0336683 0.0042326281 -1.1146116e-21)
(1.0317075 0.0034741807 3.8810684e-22)
(1.0306828 0.0027915833 1.0733439e-22)
(1.0296649 0.0020993544 2.3211021e-22)
(1.0289047 0.0014995474 2.3890895e-22)
(1.0282939 0.00095783862 -8.4427519e-22)
(1.027833 0.00055592435 -2.2595323e-22)
(1.0275128 0.00023248503 -1.8986038e-22)
(1.0273536 4.5636806e-05 -4.0627761e-22)
(1.0343321 0.0048519074 1.054452e-21)
(1.0322343 0.0040162362 9.387618e-23)
(1.0311525 0.0032674787 -5.5918654e-23)
(1.030084 0.0025200272 -3.8390936e-22)
(1.029263 0.0018454747 -1.3026109e-22)
(1.0285906 0.0012519699 4.0401916e-22)
(1.0280634 0.0007575225 2.7892613e-22)
(1.0276905 0.00040519337 3.4817024e-22)
(1.0274166 0.00013720941 2.1602215e-22)
(1.0273138 2.1574264e-05 5.2018255e-23)
(1.0349632 0.0055133365 -4.7982915e-22)
(1.0326815 0.0045713602 4.2587571e-22)
(1.0315954 0.0037661451 2.5099574e-22)
(1.0305082 0.0029492453 -4.8688793e-22)
(1.0296388 0.0022132927 -4.0384164e-23)
(1.0289112 0.0015386598 -5.701794e-22)
(1.0283378 0.0009948549 1.3491359e-22)
(1.0279077 0.00054155807 3.4052114e-22)
(1.0275883 0.00025443502 -1.2461475e-22)
(1.0273771 4.1276642e-05 3.5275283e-22)
(1.0273063 -9.1128277e-07 1.9350078e-24)
(1.0355602 0.0062080628 -7.0975343e-23)
(1.033073 0.0051542995 -8.6905643e-22)
(1.0319936 0.0042857208 -5.9000417e-22)
(1.0309113 0.0033914009 0)
(1.0300101 0.0025879901 3.5923013e-23)
(1.029247 0.0018485962 -4.7960368e-22)
(1.0286317 0.0012209858 -8.9649169e-23)
(1.0281634 0.00071604832 -1.6343602e-22)
(1.0277967 0.00032544089 -4.364796e-22)
(1.0275472 0.00010254595 -1.359194e-22)
(1.0273721 -5.091601e-05 -4.9916888e-23)
(1.0273406 -2.154859e-05 2.0100494e-23)
(1.0360934 0.0069415968 -5.2315111e-25)
(1.0334268 0.005763097 2.6704281e-22)
(1.0323661 0.0048146665 0)
(1.0312631 0.0038339962 0)
(1.030351 0.002977678 8.13563e-24)
(1.0295795 0.0021655829 -6.2493776e-22)
(1.0289347 0.0014697045 2.3072512e-22)
(1.0284347 0.00087597573 3.0895435e-22)
(1.0280399 0.00043706445 5.6516074e-23)
(1.0277529 0.00010680045 5.1248039e-24)
(1.0275437 -4.3404571e-05 -7.2819349e-23)
(1.0274117 -0.00013909044 2.4842162e-22)
(1.027401 -3.9528497e-05 -1.9825335e-22)
(1.0365166 0.0077112785 2.9866947e-22)
(1.033718 0.0063711569 -2.8814117e-23)
(1.0326974 0.0053394271 1.0790599e-22)
(1.0315624 0.0042864765 -1.4950605e-22)
(1.0306374 0.0033763049 1.4218797e-22)
(1.0298827 0.0024961984 -2.4925515e-22)
(1.0292309 0.0017252987 1.3326193e-22)
(1.0287113 0.0010586421 3.3923635e-23)
(1.0282948 0.00053002537 5.7564509e-22)
(1.02799 0.00015327365 5.4155683e-22)
(1.0277511 -0.00010425669 1.364839e-23)
(1.0275889 -0.00018317227 6.188535e-23)
(1.0274794 -0.00022006918 1.2156607e-23)
(1.0274905 -5.4637952e-05 9.2756769e-23)
(1.0367951 0.008481344 -1.7096527e-21)
(1.0339024 0.0070096521 -1.1029479e-21)
(1.0329581 0.0058603852 -3.127536e-22)
(1.0318243 0.0047405634 7.1219303e-23)
(1.0308885 0.0037898765 -6.5278361e-23)
(1.03013 0.0028323488 3.6861565e-22)
(1.0294933 0.0019945557 1.4207346e-22)
(1.0289785 0.0012477145 -1.6381682e-22)
(1.0285511 0.00064518459 -2.2377565e-22)
(1.0282356 0.00017627348 -9.2960552e-23)
(1.0279876 -0.00012194567 -7.3591242e-25)
(1.0278044 -0.00030778093 -2.234871e-22)
(1.0276658 -0.00031200297 1.5759333e-22)
(1.0275792 -0.00029307988 -1.3637655e-22)
(1.0275978 -6.6481888e-05 1.2158119e-22)
(1.0368482 0.0092785581 2.2079746e-23)
(1.033935 0.0076124305 1.4113911e-22)
(1.0331221 0.0063951704 -3.9918519e-22)
(1.0320283 0.0051863923 2.2320153e-22)
(1.0311078 0.0041991135 -2.0776545e-22)
(1.0303411 0.0031811338 -2.0549343e-22)
(1.0296979 0.0022742201 -5.2117029e-22)
(1.0292076 0.0014500142 7.7468723e-23)
(1.028794 0.00076521373 -3.3528817e-23)
(1.0284784 0.00022024585 -6.5085535e-22)
(1.0282298 -0.00016856039 -7.7909384e-23)
(1.0280473 -0.00038933905 -4.5814907e-22)
(1.0278941 -0.00049694308 -7.9273587e-23)
(1.0277789 -0.00042866011 4.9144766e-23)
(1.0276991 -0.00035614972 8.0737226e-23)
(1.027722 -7.4867822e-05 -1.583647e-22)
(1.0364439 0.010086482 0)
(1.0337649 0.0082016392 6.8089947e-22)
(1.0331709 0.0068886684 5.2990021e-22)
(1.0321464 0.0056311164 0)
(1.0312756 0.004606521 0)
(1.030518 0.0035288268 0)
(1.0298697 0.002566302 1.4503405e-22)
(1.0293792 0.0016653985 2.3075879e-22)
(1.0289936 0.00089907708 1.0322826e-21)
(1.0287041 0.00026701054 1.1649881e-22)
(1.0284652 -0.00019655791 2.3363221e-22)
(1.0282943 -0.00050619995 2.1915431e-23)
(1.0281493 -0.00063993758 9.5750236e-23)
(1.028026 -0.00067034243 8.8550922e-23)
(1.0279154 -0.00052997856 -5.1322434e-23)
(1.0278385 -0.00040852602 9.1213706e-23)
(1.0278551 -7.9616038e-05 0)
(1.0354599 0.010842219 -3.626017e-22)
(1.0332319 0.0088126837 -4.2571285e-24)
(1.0330189 0.0073346622 1.3049269e-21)
(1.0321615 0.0060629899 1.0166525e-21)
(1.0313719 0.0050032573 7.3138332e-22)
(1.0306471 0.0038770863 0)
(1.0300059 0.0028616198 9.5364828e-22)
(1.0295157 0.0018928586 -4.4076789e-22)
(1.0291358 0.0010475135 -7.4445054e-22)
(1.0288815 0.00032768135 1.3466107e-21)
(1.0286794 -0.00022427282 -5.7420972e-23)
(1.0285303 -0.00060792092 2.903855e-22)
(1.0284074 -0.0008254467 -4.3005668e-22)
(1.0283008 -0.00087239429 2.3511912e-22)
(1.0281863 -0.00082325373 -1.635944e-22)
(1.0280755 -0.00061474368 7.7100801e-22)
(1.027989 -0.0004490732 2.4502179e-22)
(1.0279941 -8.0642974e-05 2.6448189e-22)
(1.0338407 0.011545471 -1.0465029e-22)
(1.0321656 0.0093612758 1.3988446e-23)
(1.0325347 0.0077823701 1.8148777e-22)
(1.0319925 0.0064346101 6.104453e-22)
(1.0313816 0.0054096564 -1.0874448e-22)
(1.03071 0.0042158387 -4.6338319e-22)
(1.0300945 0.0031623537 -2.0876272e-21)
(1.0296127 0.0021275505 -2.0231048e-21)
(1.0292407 0.0012078463 -7.3924763e-22)
(1.029001 0.00040294204 -3.6176818e-22)
(1.0288408 -0.00023892479 -3.1923876e-22)
(1.0287411 -0.00071294075 1.0400963e-22)
(1.028651 -0.0010006208 -5.9323366e-22)
(1.0285786 -0.0011250318 1.4371567e-22)
(1.0284867 -0.0010805825 1.6487087e-22)
(1.0283762 -0.00095386579 -1.4572868e-22)
(1.0282498 -0.00068106085 3.0443756e-22)
(1.0281477 -0.00047725701 -3.3595265e-23)
(1.0281334 -7.7898822e-05 2.7411742e-22)
(1.0308902 0.012206272 -1.5080202e-21)
(1.0306061 0.0098805843 -6.888068e-22)
(1.0315723 0.0081565336 4.9511421e-22)
(1.0315529 0.0068037419 -3.803545e-22)
(1.0312486 0.0057419733 -6.7954678e-23)
(1.0306869 0.0045798832 -2.1604445e-22)
(1.0301225 0.0034603908 2.2044488e-22)
(1.0296604 0.0023718198 -5.3990961e-23)
(1.029302 0.0013785723 -3.2684658e-22)
(1.0290789 0.00049010534 -1.494626e-21)
(1.0289433 -0.00024002468 -1.106415e-22)
(1.0288947 -0.00080677192 2.954998e-22)
(1.0288655 -0.0011837367 1.1315942e-22)
(1.0288388 -0.0013733854 -1.6127945e-23)
(1.0287913 -0.0013972631 2.0100944e-22)
(1.0287093 -0.0012621267 -6.1459647e-22)
(1.0285851 -0.0010593147 3.168452e-22)
(1.0284359 -0.00072797133 -5.0952875e-22)
(1.0283085 -0.00049257995 -1.2036871e-22)
(1.0282695 -7.1396535e-05 -2.9727469e-22)
(1.0249753 0.012554559 1.5574325e-22)
(1.0284402 0.010297578 -1.8620509e-21)
(1.0301435 0.0084671826 5.832463e-22)
(1.0306409 0.0071238541 -1.6327254e-22)
(1.030874 0.0060527082 -4.1281188e-22)
(1.0305526 0.0048887353 -3.4205835e-22)
(1.0300671 0.0037806459 1.5014445e-21)
(1.0296496 0.0026202731 3.2832345e-21)
(1.0293117 0.0015619575 6.462028e-22)
(1.0291084 0.00059030514 0)
(1.0289998 -0.00022915149 9.851762e-23)
(1.0289869 -0.00088901262 1.0373857e-21)
(1.0290185 -0.0013582804 6.2453595e-22)
(1.0290661 -0.001635613 -1.0179555e-21)
(1.029076 -0.0017169815 3.2792082e-23)
(1.0290492 -0.0016394398 -4.9257052e-22)
(1.028957 -0.001412949 2.0270472e-22)
(1.0288111 -0.0011380838 3.010588e-22)
(1.0286267 -0.0007545542 -3.9475121e-22)
(1.0284678 -0.00049483249 -1.8772232e-23)
(1.0283985 -6.1218853e-05 -2.834601e-22)
(1.0159632 0.012497795 4.3573613e-21)
(1.0241098 0.010575825 -2.9907384e-21)
(1.0281941 0.0087275944 -3.1625894e-21)
(1.0292929 0.0073815989 1.904156e-21)
(1.0300307 0.0063491595 2.3926923e-22)
(1.030185 0.0051646689 -1.9052686e-22)
(1.02992 0.0040772503 0)
(1.029556 0.0028806764 -6.6609044e-22)
(1.0292636 0.0017542271 -1.2067209e-21)
(1.0290835 0.00070554369 -1.0739651e-21)
(1.0290029 -0.00020322658 4.7840212e-22)
(1.0290279 -0.00095934643 5.3275507e-22)
(1.0291072 -0.0015245802 -1.9243193e-22)
(1.0292277 -0.0018934903 -2.9372798e-23)
(1.029324 -0.0020579561 5.2658508e-22)
(1.0293678 -0.0020282502 -4.8275599e-22)
(1.0293394 -0.0018463784 6.6757068e-23)
(1.0292287 -0.0015308564 -4.8782883e-22)
(1.0290461 -0.0011886275 1.874504e-23)
(1.0288188 -0.00076038786 -1.4573401e-24)
(1.0286211 -0.00048404247 -1.919058e-22)
(1.028517 -4.7496102e-05 0)
(1.0041338 0.012321907 1.9329252e-21)
(1.0160454 0.010483258 2.4748918e-21)
(1.0247057 0.0088763583 -9.3820541e-23)
(1.0275844 0.0075952523 3.7451885e-21)
(1.0286992 0.0065705868 7.0822805e-22)
(1.0293705 0.0054671505 -1.755117e-22)
(1.0295548 0.0043200371 5.8366276e-22)
(1.029383 0.0031556951 1.0104432e-21)
(1.0291364 0.0019498834 1.5691939e-22)
(1.029 0.00083318143 1.9950204e-22)
(1.0289485 -0.00016030124 -6.1249144e-23)
(1.02901 -0.0010131152 -1.3686299e-21)
(1.0291389 -0.0016793265 1.6377208e-23)
(1.0293209 -0.0021477208 1.4355869e-21)
(1.0295031 -0.0024003342 -5.3026646e-23)
(1.0296469 -0.0024470453 -4.612473e-22)
(1.0297004 -0.0023007994 -1.132962e-22)
(1.0296617 -0.0020150157 9.4201188e-22)
(1.0295149 -0.001613551 7.6971543e-23)
(1.0292867 -0.0012101133 -2.9341012e-22)
(1.029007 -0.00074537433 0)
(1.0287652 -0.00046036901 4.2606551e-22)
(1.0286222 -3.0399227e-05 1.0735079e-23)
(0.98990872 0.011939134 -8.9296924e-21)
(1.0053594 0.010195221 9.7043818e-21)
(1.0177139 0.0086553667 -8.7917977e-21)
(1.0248115 0.0077977815 -3.0274927e-21)
(1.0270235 0.0067750972 4.1806487e-21)
(1.0280406 0.0057094635 0)
(1.0287744 0.0045939634 1.3591863e-22)
(1.0290173 0.0033622733 -1.1467376e-22)
(1.0289243 0.0021810879 9.3275023e-22)
(1.0288414 0.00096343179 2.2087445e-21)
(1.0288342 -0.00010228363 -3.0335568e-22)
(1.0289305 -0.0010481672 -7.8783936e-22)
(1.0291054 -0.0018164385 9.1006307e-22)
(1.02935 -0.0023912752 -3.514356e-22)
(1.0296091 -0.0027447273 8.3932441e-22)
(1.0298541 -0.0028751585 5.5455575e-22)
(1.0300199 -0.0027950998 -1.0249455e-21)
(1.0300747 -0.0025307549 3.9652592e-22)
(1.0300059 -0.0021419135 -1.4483372e-21)
(1.0298125 -0.0016595618 5.275108e-22)
(1.0295266 -0.0012021354 6.9514358e-22)
(1.0291875 -0.00070966602 -5.2001423e-22)
(1.0288967 -0.00042430485 2.5033482e-22)
(1.0287117 -1.0116632e-05 1.003917e-23)
(0.97394805 0.011409672 -1.7292513e-21)
(0.99260454 0.0098644224 9.8806592e-21)
(1.0074201 0.0081280541 1.3092496e-21)
(1.0187215 0.0077100044 2.2854479e-20)
(1.0246406 0.0069913412 -4.4432866e-21)
(1.0263663 0.0059411315 4.7177199e-21)
(1.0274106 0.0048252487 1.2811921e-22)
(1.0282652 0.0035824247 3.7377525e-22)
(1.0285645 0.0023557092 -1.8447807e-22)
(1.028591 0.0011296193 4.5880443e-22)
(1.0286488 -3.8722215e-05 1.9581054e-22)
(1.0287893 -0.0010651955 1.7887974e-21)
(1.0290055 -0.0019330527 -1.6700968e-22)
(1.0293066 -0.0026172075 -1.4671045e-22)
(1.0296428 -0.0030810592 -2.9347858e-22)
(1.0299826 -0.0033124742 2.0803361e-22)
(1.0302656 -0.0033090517 -2.0156073e-22)
(1.0304457 -0.0030975743 6.6784875e-22)
(1.030479 -0.0027136975 0)
(1.0303689 -0.0022246157 9.3856783e-23)
(1.0301141 -0.0016679731 3.0637952e-23)
(1.0297619 -0.00116472 -5.8500577e-23)
(1.0293567 -0.00065389463 1.4196842e-25)
(1.0290133 -0.00037644951 -3.665045e-22)
(1.0287837 1.3022544e-05 -1.030779e-22)
(0.95693814 0.010775106 6.7281884e-21)
(0.97787163 0.0093600781 -6.6410111e-21)
(0.99483048 0.0075497187 -4.3578718e-21)
(1.0091936 0.0072512955 -3.4721876e-21)
(1.0195558 0.0070341803 -2.0286582e-20)
(1.024225 0.0062124602 -8.2841189e-22)
(1.0256613 0.0050425058 1.2923895e-22)
(1.0268778 0.003790621 -1.3747674e-22)
(1.0278523 0.0025088017 -1.4794381e-22)
(1.0282353 0.0012661886 3.4565459e-22)
(1.0283708 5.300093e-05 4.8679837e-22)
(1.0285798 -0.0010710722 -2.4027316e-22)
(1.028841 -0.0020282097 -9.5727341e-22)
(1.0291903 -0.0028209847 -6.9463836e-23)
(1.0295962 -0.0034006542 -5.7245257e-22)
(1.03003 -0.0037461607 3.6766616e-22)
(1.0304271 -0.0038407002 1.294748e-21)
(1.0307418 -0.0036960875 -9.931528e-22)
(1.0309115 -0.0033488569 -1.5561243e-21)
(1.030911 -0.0028459976 1.2176612e-23)
(1.0307422 -0.0022614909 1.5291397e-21)
(1.0304154 -0.001638407 3.70629e-22)
(1.0299881 -0.0010984642 -6.2889406e-22)
(1.0295115 -0.00057897355 4.433654e-22)
(1.0291128 -0.00031752726 -2.3010784e-22)
(1.028837 3.8578382e-05 1.240784e-23)
(0.93949271 0.010078749 -2.7660392e-22)
(0.96188612 0.008760917 -8.4011342e-21)
(0.980299 0.0068943055 1.9724496e-20)
(0.99717353 0.0067316009 -2.2667955e-20)
(1.0107772 0.0066268631 2.1527833e-20)
(1.0200683 0.0063935997 -1.0945307e-20)
(1.0235967 0.0053120116 -4.5796663e-21)
(1.0250196 0.0039697874 -3.1235351e-21)
(1.0264792 0.0026721226 1.9370509e-21)
(1.0275721 0.0013499437 7.8238857e-24)
(1.028015 0.00014184593 -1.360779e-22)
(1.0282826 -0.0010585762 -1.38482e-21)
(1.0286093 -0.0021058618 1.44359e-21)
(1.0290046 -0.002999552 -1.0023157e-21)
(1.0294683 -0.0036973393 3.856088e-23)
(1.0299879 -0.0041656002 4.2352814e-22)
(1.0304983 -0.0043750242 -9.2189985e-22)
(1.0309481 -0.0043227447 1.0629084e-21)
(1.0312694 -0.0040294053 -8.4170514e-22)
(1.0314161 -0.003544123 2.1289692e-22)
(1.0313611 -0.0029248784 0)
(1.0311211 -0.0022514421 6.7546673e-22)
(1.0307107 -0.0015713703 5.5169596e-23)
(1.0302016 -0.0010044574 0)
(1.0296491 -0.00048596113 -5.3722791e-22)
(1.0291932 -0.00024844375 -4.2829347e-23)
(1.0288708 6.6459656e-05 1.3350036e-23)
(0.9220782 0.0093460552 -2.1088651e-21)
(0.94527259 0.0081047136 -7.4367824e-22)
(0.96445125 0.0061944489 1.908328e-20)
(0.98316886 0.0061116865 -2.2084451e-21)
(0.99919867 0.0061189168 5.9039968e-21)
(1.01212 0.0061421358 1.6464641e-20)
(1.0201167 0.0055879831 6.0700388e-22)
(1.0229055 0.0042009649 5.1700307e-21)
(1.0245162 0.0027909732 -4.4522127e-22)
(1.0262544 0.0014472048 -1.2245027e-21)
(1.027407 0.00016584055 -3.2610059e-22)
(1.0279169 -0.0010239358 -6.5881799e-22)
(1.0282963 -0.0021702519 -9.46636e-22)
(1.0287497 -0.0031543988 4.4295521e-23)
(1.0292636 -0.0039659032 -1.193195e-21)
(1.0298548 -0.0045634382 1.2549819e-22)
(1.0304703 -0.0049004056 -1.9998673e-21)
(1.0310552 -0.0049609008 2.1125515e-21)
(1.0315331 -0.0047500931 6.3076358e-22)
(1.0318482 -0.0043026458 -5.7850602e-22)
(1.0319486 -0.0036796981 1.0176882e-21)
(1.0318249 -0.0029481054 -1.1427302e-23)
(1.0314983 -0.0021940944 -5.7811829e-23)
(1.0309952 -0.0014671672 0)
(1.030398 -0.00088352385 0)
(1.0297675 -0.00037616539 4.6927101e-23)
(1.0292532 -0.00016995282 -1.3722383e-22)
(1.0288841 9.6399611e-05 5.7317212e-23)
(0.90504223 0.0086108579 0)
(0.92852966 0.007416541 -5.4465394e-21)
(0.94794443 0.0054811582 -2.0035872e-20)
(0.96770588 0.005438262 -1.4381204e-20)
(0.98562313 0.0055362664 -2.5666938e-20)
(1.0010532 0.0056954481 -2.6277385e-21)
(1.0130353 0.0054880067 9.6729408e-21)
(1.0198726 0.0045043799 1.2836999e-20)
(1.0222972 0.0029569461 -8.0130338e-21)
(1.0242133 0.0014945755 8.1433132e-22)
(1.0261837 0.00019044321 -8.3551642e-23)
(1.0273602 -0.0010471109 -9.8274931e-23)
(1.0279093 -0.0021927082 -1.802505e-21)
(1.0284169 -0.0032925752 5.0931666e-23)
(1.0289841 -0.0042047983 1.9188214e-22)
(1.0296349 -0.0049314253 -1.2267458e-21)
(1.0303407 -0.0054071706 2.3497073e-22)
(1.0310534 -0.0055978594 -1.0530775e-21)
(1.0316894 -0.0054934925 2.2052386e-21)
(1.0321826 -0.0051148413 -1.0467523e-21)
(1.0324661 -0.0045105872 8.7480925e-22)
(1.0325047 -0.0037517552 5.7653207e-22)
(1.0322938 -0.002914979 -1.5758531e-23)
(1.0318692 -0.0020898786 -1.8657627e-21)
(1.0312647 -0.0013272282 -4.632616e-22)
(1.0305752 -0.00073712469 9.3115015e-23)
(1.0298647 -0.00025075238 3.5476288e-22)
(1.0292918 -8.2958953e-05 -1.8548813e-23)
(1.0288771 0.00012791456 -2.6493072e-22)
(0.88862347 0.0078664485 6.5509229e-21)
(0.91203522 0.0067050411 0)
(0.93127276 0.0047816655 0)
(0.95146576 0.0047437281 0)
(0.97045059 0.0048927135 7.8063258e-21)
(0.9879139 0.0051773442 -2.2663928e-20)
(1.002596 0.0050896787 6.2755709e-22)
(1.0136832 0.0045268955 1.6496727e-22)
(1.019508 0.0032262146 -1.7504892e-20)
(1.0218519 0.0015793341 1.0766557e-20)
(1.024124 0.0001647462 -2.1542549e-21)
(1.0262652 -0.001093798 2.6863746e-22)
(1.0273935 -0.0022521138 3.3079643e-22)
(1.0280017 -0.0033815702 -1.9673517e-23)
(1.0286257 -0.0044185051 1.9572429e-21)
(1.0293315 -0.0052656877 2.9758163e-22)
(1.0301128 -0.0058851616 -1.39736e-21)
(1.0309387 -0.0062215613 -7.6023534e-22)
(1.0317274 -0.0062456874 1.0385491e-21)
(1.0324028 -0.005963426 -8.2214006e-23)
(1.0328844 -0.0054101483 -1.0393856e-21)
(1.0331193 -0.0046476078 -5.9557518e-23)
(1.0330744 -0.0037585169 1.5033093e-21)
(1.0327624 -0.0028249995 -9.7661178e-22)
(1.0322278 -0.0019401738 -2.5019228e-23)
(1.0315155 -0.0011534485 -2.8562709e-22)
(1.0307306 -0.00056759403 5.1866409e-22)
(1.0299397 -0.00011118279 2.0562361e-22)
(1.0293087 1.1500644e-05 -1.0710808e-22)
(1.0288495 0.00016080331 -2.5789647e-22)
(0.87161817 0.0071249733 -5.7170463e-23)
(0.89608602 0.0059952987 -6.4269198e-21)
(0.91480401 0.0040993324 0)
(0.93496061 0.0040650101 0)
(0.95438478 0.0042297892 0)
(0.97306641 0.0045768344 0)
(0.98990067 0.0046176112 0)
(1.0039776 0.0041520421 -2.2173714e-23)
(1.0142083 0.003323447 9.8459912e-21)
(1.0191406 0.0017713651 -1.8477374e-20)
(1.0216067 0.0001527048 7.283456e-23)
(1.0242594 -0.001188768 -1.9594519e-21)
(1.0264413 -0.0023542397 1.0904206e-21)
(1.0275033 -0.0034785587 6.1941082e-22)
(1.0281788 -0.004585074 -1.3664271e-22)
(1.0289439 -0.0055671582 8.7743832e-22)
(1.0297903 -0.0063277187 -1.188878e-21)
(1.0307131 -0.0068206583 7.1188077e-22)
(1.0316416 -0.0069933802 5.3126314e-22)
(1.0324963 -0.0068334136 3.9324826e-22)
(1.0331837 -0.0063617088 1.3775813e-22)
(1.0336349 -0.0056283602 5.3524379e-22)
(1.0337958 -0.0047105712 -2.5898978e-25)
(1.0336517 -0.0036980134 -6.0800358e-22)
(1.0332233 -0.0026791523 2.704947e-22)
(1.0325697 -0.0017466524 1.6345368e-21)
(1.0317444 -0.00094800711 3.7832521e-22)
(1.0308622 -0.00037694156 -2.3152509e-22)
(1.0299915 4.08443e-05 2.3964155e-23)
(1.0293037 0.00011240593 2.3518823e-22)
(1.0288018 0.00019483649 1.9465404e-22)
(0.85375226 0.0062674432 -5.9257208e-21)
(0.87956032 0.0053039664 -1.3617155e-21)
(0.89881444 0.0034431096 -2.0132972e-20)
(0.91857821 0.003406984 -3.073112e-20)
(0.93795925 0.0035868015 0)
(0.95717485 0.0039506439 0)
(0.97541402 0.0040457667 -6.3325472e-23)
(0.99174166 0.0036852442 -2.3707137e-20)
(1.0052918 0.0029846639 2.8506782e-20)
(1.0146156 0.0018992514 -2.4466927e-20)
(1.0188757 0.00024789024 -1.8441597e-22)
(1.0215911 -0.0012958813 6.3926015e-21)
(1.0245514 -0.0024982564 -6.7494062e-22)
(1.0266706 -0.0036157106 6.033597e-23)
(1.0276673 -0.0047264958 -6.0597798e-22)
(1.0284624 -0.0058249539 4.0361542e-23)
(1.0293744 -0.0067319502 2.5789773e-21)
(1.0303805 -0.0073854479 -1.4016663e-22)
(1.031432 -0.0077229769 -2.0893873e-21)
(1.0324555 -0.0077098841 3.1297374e-21)
(1.0333492 -0.0073493682 -9.6087316e-22)
(1.0340289 -0.006678527 -9.1500496e-22)
(1.0344218 -0.0057645807 2.3830657e-21)
(1.0344896 -0.0046957974 8.7062663e-22)
(1.0342273 -0.0035704611 -3.933689e-22)
(1.0336711 -0.0024785406 1.0287021e-21)
(1.0328901 -0.0015119235 4.8976125e-22)
(1.0319488 -0.0007134819 1.286883e-22)
(1.0309688 -0.00016753701 -2.1905716e-22)
(1.0300199 0.00020345461 -9.7819867e-23)
(1.0292771 0.00021857089 2.7784644e-22)
(1.0287346 0.00022972659 2.6060391e-23)
(0.83608462 0.0054018484 1.8010462e-21)
(0.86214238 0.0045161392 6.8601692e-21)
(0.8822171 0.0028597369 2.8035324e-20)
(0.90262435 0.0027757774 3.8054086e-20)
(0.92156767 0.0029662055 0)
(0.94083101 0.0033359127 0)
(0.95972513 0.0034390978 0)
(0.97764884 0.0031145422 3.5236443e-21)
(0.99356573 0.0024887514 -3.5091712e-20)
(1.0065554 0.0016282066 -2.6846343e-20)
(1.0149018 0.00037955631 -1.8014543e-22)
(1.0187453 -0.0012977075 1.8586763e-21)
(1.0217701 -0.0026809546 -1.1639755e-20)
(1.0249404 -0.0037879226 2.4485306e-21)
(1.0269102 -0.0048941303 2.5398955e-23)
(1.0279129 -0.0060274132 0)
(1.0288591 -0.0070973641 6.0851453e-22)
(1.029943 -0.0079103097 -6.8700573e-22)
(1.0311022 -0.0084225828 2.3082378e-22)
(1.0322781 -0.0085782191 3.2173826e-22)
(1.0333711 -0.0083574825 -1.3997302e-21)
(1.034284 -0.0077816661 3.7388408e-22)
(1.0349256 -0.0069068973 -1.4447047e-21)
(1.0352381 -0.0058132899 -1.9248968e-21)
(1.0351895 -0.0046027237 7.6478779e-22)
(1.0347947 -0.0033759546 1.2812841e-22)
(1.0340991 -0.0022256438 -9.9539234e-23)
(1.0331854 -0.0012387854 1.4836848e-23)
(1.0321263 -0.00045279271 -3.5960576e-22)
(1.0310495 5.8144188e-05 -2.7485835e-22)
(1.0300247 0.00037493012 1.3282693e-22)
(1.0292295 0.00032893081 -1.0472656e-21)
(1.0286486 0.00026512187 5.3695658e-22)
(0.81888257 0.0045376392 1.2993536e-21)
(0.84469504 0.0037279309 5.86375e-22)
(0.86478768 0.0022043317 4.8611444e-20)
(0.88600662 0.0022502412 7.3354957e-20)
(0.90555609 0.0023702566 -1.5926623e-20)
(0.92443211 0.0027414015 -1.6173406e-21)
(0.94347207 0.0028333825 -6.165322e-20)
(0.96219886 0.002495141 2.8925403e-20)
(0.97989882 0.0018925131 3.9759886e-21)
(0.99542214 0.0011079217 6.940636e-20)
(1.0076871 0.00018072305 -2.2225689e-20)
(1.0151128 -0.0011894524 -2.306396e-20)
(1.0187303 -0.0027635872 8.4031067e-23)
(1.0221069 -0.0040265833 4.6615287e-21)
(1.0253643 -0.0050883041 1.7638279e-21)
(1.0271867 -0.0062416595 -9.5961107e-23)
(1.0282567 -0.0073879847 1.7859629e-22)
(1.0293976 -0.0083969292 9.1512816e-22)
(1.0306547 -0.0090845007 -2.679386e-22)
(1.0319675 -0.009423841 -1.413301e-22)
(1.0332452 -0.0093696168 8.1143295e-22)
(1.0343876 -0.0089215925 -2.6307166e-21)
(1.0352878 -0.0081205137 -1.4695259e-22)
(1.0358667 -0.0070388787 1.057359e-21)
(1.0360715 -0.0057724815 -2.6413415e-21)
(1.0358885 -0.0044301231 -9.1250938e-22)
(1.035346 -0.0031169335 -8.1479726e-22)
(1.034503 -0.0019232198 -2.7369919e-22)
(1.0334524 -0.00093032345 -4.2619976e-22)
(1.0322752 -0.0001691587 -7.3321334e-24)
(1.0311041 0.00029786544 -2.1272631e-23)
(1.0300062 0.00055345967 -3.4484525e-23)
(1.0291616 0.0004424125 5.170376e-22)
(1.028545 0.00030072247 -1.177148e-21)
(0.80244804 0.0036880502 -1.6987066e-21)
(0.82746899 0.0029414974 -8.5632055e-22)
(0.84722508 0.0015901481 -5.4005297e-20)
(0.86858573 0.0016292259 -3.678583e-20)
(0.88882588 0.0019120923 5.9981487e-20)
(0.90835557 0.0021623764 7.5051146e-20)
(0.92706281 0.0022449631 8.5204636e-21)
(0.94604987 0.0018681657 0)
(0.96473698 0.001229444 3.1736174e-20)
(0.98222681 0.00047696812 9.7289986e-20)
(0.99729805 -0.00034510405 3.5002348e-21)
(1.0087045 -0.001315388 1.151924e-20)
(1.0152388 -0.0026871762 0)
(1.018818 -0.0041701528 -9.0957919e-22)
(1.0225538 -0.0053710862 -7.3457463e-21)
(1.0258227 -0.0064685411 8.7708629e-23)
(1.0275276 -0.0076685655 -2.7973947e-22)
(1.0287432 -0.0088107861 0)
(1.0300887 -0.0097069115 5.1034072e-22)
(1.0315261 -0.010237241 1.1215936e-21)
(1.0329724 -0.010369848 -2.1504119e-21)
(1.0343333 -0.010080166 8.1173755e-22)
(1.0354928 -0.009389349 0)
(1.0363532 -0.0083557462 -2.458383e-21)
(1.0368388 -0.0070704208 1.111524e-21)
(1.0369136 -0.0056392289 -7.4144683e-23)
(1.0365765 -0.0041798792 -1.1201325e-21)
(1.0358748 -0.0027954575 9.3838575e-22)
(1.0348776 -0.0015750242 4.1159784e-23)
(1.0336886 -0.00059006644 -9.6316261e-22)
(1.0323945 0.00013427523 6.8438857e-22)
(1.0311321 0.00054908992 1.612212e-22)
(1.029965 0.00073741582 0)
(1.0290744 0.0005580802 -2.0970104e-23)
(1.0284247 0.00033626397 -4.1270115e-22)
(0.78716213 0.002868002 -7.5988791e-22)
(0.81076807 0.0021722251 4.0395832e-21)
(0.82983414 0.0010153947 -4.9255865e-20)
(0.85086855 0.0010729574 -1.2909722e-20)
(0.87134143 0.0013471671 1.6034735e-20)
(0.89147672 0.0017549939 9.7984848e-21)
(0.91091114 0.0016621483 6.4325357e-20)
(0.92963159 0.0012571864 2.9651404e-22)
(0.94871476 0.00055374265 0)
(0.96739768 -0.00023866042 -3.7034136e-20)
(0.98461648 -0.0009948185 3.0243972e-20)
(0.9991036 -0.0018161246 -1.9026851e-21)
(1.0095404 -0.0027320294 1.1881148e-20)
(1.0152896 -0.0041341856 -1.1762328e-20)
(1.0189805 -0.0055842624 -5.362734e-21)
(1.0231272 -0.0067926882 -4.1064701e-21)
(1.0263207 -0.0079536174 3.7670744e-21)
(1.0279914 -0.009185247 -6.0081162e-23)
(1.0293977 -0.010269663 1.6442098e-21)
(1.0309542 -0.011012288 -3.2549785e-21)
(1.0325564 -0.01134585 2.6371345e-21)
(1.0341201 -0.011241464 -2.4580869e-21)
(1.0355315 -0.010694254 0)
(1.0366794 -0.0097478699 -6.5582042e-22)
(1.0374661 -0.0084807788 2.6393314e-22)
(1.0378319 -0.006996756 1.3520751e-21)
(1.0377524 -0.0054143887 3.1392756e-22)
(1.0372461 -0.0038531299 1.7788378e-22)
(1.0363746 -0.002415552 6.8323416e-22)
(1.0352193 -0.0011845671 0)
(1.0338916 -0.00022199443 8.7014922e-22)
(1.0324836 0.00045488177 7.7275797e-22)
(1.0311339 0.00080922384 7.0874225e-22)
(1.029902 0.00092514085 -4.7980549e-22)
(1.0289689 0.00067502055 2.0184434e-23)
(1.0282891 0.00037151909 1.5532753e-21)
(0.77354335 0.0020924777 9.4395441e-22)
(0.79501009 0.0014408271 -2.8053007e-22)
(0.81291868 0.00048098299 1.5086917e-20)
(0.83320084 0.00057310435 4.9893384e-22)
(0.85340035 0.0008700066 -7.1328224e-20)
(0.87388435 0.0012281334 -7.2737117e-20)
(0.89385217 0.0012995387 -2.5312665e-22)
(0.91339957 0.00063593286 4.8562447e-20)
(0.93229492 -0.00011163117 2.4681159e-22)
(0.95152495 -0.00096745346 3.5969376e-20)
(0.97016193 -0.0017532853 -5.2910301e-23)
(0.98698938 -0.0024617618 -1.6058282e-20)
(1.0007348 -0.0031517793 -1.9228426e-21)
(1.010149 -0.0040946963 -1.2257531e-20)
(1.0152606 -0.0056081733 4.0854173e-20)
(1.0193014 -0.0071086537 9.4475018e-22)
(1.0238341 -0.0083263289 -3.7571558e-21)
(1.0268985 -0.0095591728 -1.035572e-21)
(1.0286129 -0.010767897 -7.1725785e-22)
(1.0302466 -0.011741749 -6.1133967e-22)
(1.0319971 -0.012288465 1.2375584e-21)
(1.0337504 -0.012388016 -3.2174427e-21)
(1.0354003 -0.012017805 2.7493506e-21)
(1.0368329 -0.011195636 0)
(1.0379324 -0.0099876956 1.5764045e-21)
(1.0386156 -0.0084884649 2.8096192e-21)
(1.0388328 -0.0068171376 -1.2447371e-21)
(1.038579 -0.0050981542 2.4434184e-21)
(1.0378889 -0.0034539224 5.0620241e-23)
(1.0368405 -0.0019810578 -7.8562894e-22)
(1.0355247 -0.00075645727 -9.1083841e-22)
(1.0340604 0.00017013001 -1.6579605e-22)
(1.0325424 0.00078941952 -6.8685902e-23)
(1.0311101 0.0010759603 8.7850786e-22)
(1.0298182 0.001115165 -2.2595586e-22)
(1.0288464 0.00079239766 -6.1033039e-23)
(1.0281395 0.00040629461 6.1721907e-22)
(0.76228608 0.0013651443 -3.6447361e-22)
(0.7808038 0.00077276966 -3.4276241e-21)
(0.79688632 5.9326549e-06 1.9339658e-20)
(0.8158839 0.00013259516 1.0122342e-20)
(0.83541082 0.00046490013 -5.2583069e-22)
(0.85566532 0.00081041917 4.3982444e-22)
(0.8761164 0.00080929511 3.908985e-20)
(0.89612949 0.00028995642 -1.7981222e-20)
(0.91598078 -0.00079611397 0)
(0.93511173 -0.0016934532 -8.0460035e-21)
(0.95446838 -0.0025280356 0)
(0.97294596 -0.003229789 0)
(0.98923172 -0.0037612332 -1.6907605e-20)
(1.0020809 -0.0043837783 2.0169244e-21)
(1.0104422 -0.0055151914 8.7583198e-21)
(1.0152725 -0.0072222439 1.1486613e-20)
(1.0198582 -0.008775891 -1.1929907e-20)
(1.0246896 -0.0099935116 -4.0422304e-21)
(1.0275863 -0.011258461 -8.5426607e-22)
(1.0294279 -0.012393234 3.4831303e-22)
(1.0312925 -0.013194922 -2.1913576e-21)
(1.0332253 -0.01350963 1.6397341e-21)
(1.0351003 -0.013341194 3.9105327e-22)
(1.0368072 -0.012680585 -1.00493e-21)
(1.0382226 -0.01157185 -7.7004137e-23)
(1.0392404 -0.010099423 6.2389867e-22)
(1.0397869 -0.0083759841 -2.3369471e-22)
(1.0398307 -0.006530271 -1.5301463e-21)
(1.0393829 -0.004694029 -1.3301303e-22)
(1.0384984 -0.0029856268 -2.4210355e-21)
(1.0372676 -0.0014971356 -5.9449927e-22)
(1.0357915 -0.00029508386 -2.4462734e-22)
(1.0341938 0.00058229234 -1.0746482e-21)
(1.0325711 0.0011345843 4.5198941e-22)
(1.0310615 0.0013474188 -1.816027e-21)
(1.0297146 0.0013061277 -3.5226526e-22)
(1.0287081 0.00090944904 -5.3290058e-22)
(1.0279771 0.00044041343 0)
(0.75416734 0.00069370071 -8.9882153e-22)
(0.7688892 0.00017773972 -2.6127221e-22)
(0.78227584 -0.00039237015 5.0370862e-21)
(0.79933687 -0.00022581967 8.3450417e-21)
(0.8176745 0.00013060993 3.5311357e-20)
(0.83729077 0.00047813197 2.9710987e-20)