/*--------------------------------*- C++ -*----------------------------------*\
  =========                 |
  \\      /  F ield         | OpenFOAM: The Open Source CFD Toolbox
   \\    /   O peration     | Website:  https://openfoam.org
    \\  /    A nd           | Version:  8
     \\/     M anipulation  |
\*---------------------------------------------------------------------------*/
FoamFile
{
    version     2.0;
    format      ascii;
    class       volSymmTensorField;
    location    "399.966377299886858";
    object      UPrime2Mean;
}
// * * * * * * * * * * * * * * * * * * * * * * * * * * * * * * * * * * * * * //

dimensions      [0 2 -2 0 0 0 0];

internalField   nonuniform List<symmTensor> 
9200
(
(0.00019224536 7.1630193e-06 -8.1976043e-27 4.6617394e-07 -4.4291832e-28 3.0971805e-48)
(0.00019492966 2.2010435e-05 1.0353463e-23 4.4998907e-06 1.9087938e-24 8.6027933e-43)
(0.00015283726 5.9235488e-06 0 4.6257842e-07 0 0)
(0.00019860053 3.5232209e-05 -5.4271441e-24 1.1439481e-05 -1.588215e-24 2.3464631e-43)
(0.00015522699 1.8266131e-05 6.7190977e-24 4.5396977e-06 1.502759e-24 5.3462894e-43)
(0.00013806992 5.4176268e-06 0 4.6031808e-07 0 0)
(0.00020386738 4.8204669e-05 -5.45891e-25 2.1464885e-05 -2.1823616e-25 2.3645667e-45)
(0.00015870402 2.9203264e-05 2.4846029e-25 1.148746e-05 9.628095e-26 1.0574041e-45)
(0.00014040126 1.6750961e-05 0 4.5595731e-06 0 0)
(0.00011896814 4.6454111e-06 0 4.5625802e-07 0 0)
(0.00021014269 6.0125702e-05 1.0940064e-23 3.3383214e-05 5.3938673e-24 9.3544491e-43)
(0.00016357304 3.9927777e-05 5.5236361e-24 2.1599962e-05 2.626338e-24 3.5603249e-43)
(0.00014379965 2.6761556e-05 3.4903864e-24 1.1508135e-05 1.3847645e-24 1.7622693e-43)
(0.00012116654 1.4386337e-05 1.8458287e-25 4.5882125e-06 5.5204976e-26 6.9850467e-46)
(0.00010566622 4.0250779e-06 3.6243311e-28 4.5146761e-07 3.2802097e-29 3.1580583e-50)
(0.00021763007 7.1640775e-05 1.031358e-23 4.7432767e-05 6.0162789e-24 8.2220262e-43)
(0.00016945558 4.971264e-05 -4.958568e-25 3.3539814e-05 -3.2285602e-25 3.9468852e-45)
(0.00014858108 3.6587455e-05 1.1469504e-23 2.1653047e-05 6.2201271e-24 1.8916601e-42)
(0.00012446207 2.2966275e-05 3.8250249e-24 1.1547481e-05 1.7958253e-24 2.9588219e-43)
(0.0001077979 1.2472288e-05 6.3553107e-27 4.6014397e-06 -1.9876264e-27 2.2469835e-46)
(9.363508e-05 3.378406e-06 -5.6444839e-24 4.4677091e-07 -7.7705298e-25 1.4036536e-42)
(0.00022621047 8.2596814e-05 1.0932056e-23 6.301708e-05 7.1892834e-24 9.3145711e-43)
(0.00017642804 5.9116473e-05 8.806394e-24 4.7630223e-05 6.2884089e-24 8.9294084e-43)
(0.00015434769 4.5534367e-05 -6.9622327e-24 3.3594029e-05 -4.7128565e-24 6.9640978e-43)
(0.00012911985 3.1379778e-05 -3.8227143e-25 2.1775894e-05 -2.4384135e-25 2.953534e-45)
(0.0001110515 1.9906244e-05 3.2485263e-24 1.1552489e-05 1.8341838e-24 3.0350818e-43)
(9.5679013e-05 1.0448842e-05 2.6564187e-24 4.6265315e-06 1.1682975e-24 3.0654254e-43)
(8.455522e-05 2.7837081e-06 3.4035952e-25 4.3988211e-07 5.9473932e-26 8.4057231e-45)
(0.00023589545 9.3209679e-05 6.5870063e-24 8.0277502e-05 4.8216836e-24 5.6569386e-43)
(0.00018450412 6.8006392e-05 6.7537429e-24 6.3196793e-05 5.4264451e-24 5.1602788e-43)
(0.00016108486 5.4059836e-05 7.9133337e-24 4.764889e-05 6.3380815e-24 8.9250108e-43)
(0.00013479436 3.9023138e-05 5.0211801e-26 3.3811262e-05 -4.2434143e-27 2.74062e-45)
(0.00011567527 2.7183179e-05 -7.9009319e-24 2.1821144e-05 -6.110803e-24 1.784553e-42)
(9.8875117e-05 1.6673676e-05 -2.8650074e-24 1.1591606e-05 -1.9938647e-24 3.5654546e-43)
(8.6549802e-05 8.5606947e-06 -2.6944473e-24 4.6280032e-06 -1.527476e-24 5.2415239e-43)
(7.7182356e-05 2.2054778e-06 3.2028709e-24 4.325602e-07 7.6152202e-25 1.3892395e-42)
(0.00024662671 0.00010353464 -1.5187873e-23 9.9423487e-05 -1.225624e-23 1.7932392e-42)
(0.00019363623 7.6518131e-05 7.2317905e-24 8.0456114e-05 6.5179036e-24 6.0481328e-43)
(0.00016863996 6.1992625e-05 7.342564e-26 6.306499e-05 1.6232875e-26 5.753667e-45)
(0.00014147891 4.633114e-05 3.3333128e-24 4.8027948e-05 3.2422962e-24 2.2770953e-43)
(0.0001213383 3.3793025e-05 7.9870063e-26 3.3885642e-05 -2.0811808e-26 1.1627067e-44)
(0.00010344144 2.2727715e-05 -9.9554284e-24 2.1952936e-05 -9.6543552e-24 4.3971175e-42)
(8.9730849e-05 1.366714e-05 1.3911042e-24 1.1575303e-05 1.2988129e-24 1.7101423e-43)
(7.9129955e-05 6.6957696e-06 -3.3985608e-24 4.630928e-06 -2.654005e-24 1.5773152e-42)
(7.1962284e-05 1.6707955e-06 -4.5272485e-24 4.2281883e-07 -1.6368621e-24 6.571894e-42)
(0.00025869312 0.00011376237 1.3377448e-23 0.00012130889 1.2080085e-23 1.6738465e-42)
(0.0002037931 8.4465902e-05 -2.6478498e-24 9.9519787e-05 -2.3865443e-24 2.2279684e-43)
(0.0001770875 6.9467814e-05 -3.0224493e-25 7.9974358e-05 -3.0431174e-25 2.0209175e-45)
(0.000149151 5.3163608e-05 -1.8127906e-25 6.3624571e-05 -2.4930207e-27 5.4326049e-44)
(0.00012805343 4.0094052e-05 -1.0621829e-24 4.8151962e-05 -1.2148124e-24 3.2374127e-44)
(0.00010907002 2.8210428e-05 1.0053017e-25 3.4138907e-05 -3.5100528e-26 2.8324585e-44)
(9.4297231e-05 1.8578802e-05 2.770172e-24 2.1979812e-05 3.4789801e-24 5.6735053e-43)
(8.2301749e-05 1.0693795e-05 3.5719637e-24 1.1568273e-05 4.4833942e-24 1.7908672e-42)
(7.3895481e-05 4.9373976e-06 1.2975544e-24 4.6063221e-06 1.5816546e-24 5.58999e-43)
(6.8243987e-05 1.1652007e-06 1.5299136e-25 4.1180574e-07 1.2416855e-25 3.8946357e-44)
(0.0002728826 0.00012391256 -6.294294e-24 0.00014764564 -6.0007577e-24 2.9533356e-43)
(0.00021539806 9.1392635e-05 1.7212857e-24 0.00012106009 2.4293537e-24 1.935877e-43)
(0.00018647882 7.6293867e-05 5.1612499e-24 9.8403127e-05 5.8211402e-24 3.9293667e-43)
(0.00015784276 5.962987e-05 -4.9256101e-24 8.0695207e-05 -6.1754783e-24 4.9124421e-43)
(0.0001357361 4.6002994e-05 4.8334438e-24 6.3776787e-05 6.7543344e-24 7.9224136e-43)
(0.00011576392 3.3428378e-05 -9.6885177e-24 4.8614589e-05 -1.4435944e-23 4.4359307e-42)
(9.996301e-05 2.3033552e-05 2.239388e-26 3.4237675e-05 -4.5390218e-27 2.8017148e-45)
(8.6881879e-05 1.4445394e-05 5.5955811e-24 2.2041042e-05 9.9883601e-24 4.6743708e-42)
(7.7095036e-05 7.8931673e-06 -1.8547681e-24 1.1496601e-05 -3.6559014e-24 1.2023427e-42)
(7.0182977e-05 3.2409046e-06 1.8923144e-24 4.5699955e-06 4.951029e-24 5.5388367e-42)
(6.6136768e-05 7.0796083e-07 -1.143362e-26 3.9831714e-07 -2.3478516e-25 1.4539798e-43)
(0.0002912234 0.00013412134 -5.580846e-25 0.00018134353 -1.7241186e-24 9.6515443e-44)
(0.00023074831 9.7343584e-05 -3.9731325e-24 0.00014698399 -7.0548032e-24 8.1161882e-43)
(0.00019732448 8.2261072e-05 -5.4829804e-24 0.00011898135 -7.0344071e-24 4.4409267e-43)
(0.00016765965 6.5594144e-05 0 9.9143437e-05 0 0)
(0.00014440216 5.1609766e-05 1.1448233e-25 8.0855836e-05 1.6451654e-25 5.6869984e-46)
(0.00012347843 3.8365925e-05 -3.1817635e-25 6.45272e-05 -3.1581979e-25 4.5112777e-44)
(0.00010671455 2.7254647e-05 -1.5450753e-24 4.8867668e-05 -3.0312902e-24 1.9423832e-43)
(9.2578626e-05 1.7823733e-05 -2.7164123e-24 3.4424393e-05 -6.2866849e-24 1.1842259e-42)
(8.1740869e-05 1.0534368e-05 -6.1809041e-27 2.1979717e-05 -1.7494394e-25 2.9421275e-44)
(7.3440175e-05 5.1822918e-06 -1.0354431e-24 1.1401771e-05 -4.6693368e-24 1.9771788e-42)
(6.811863e-05 1.6703466e-06 5.2847011e-26 4.5020587e-06 -2.0259908e-24 9.4705273e-43)
(6.5230267e-05 2.9092461e-07 -1.9955297e-25 3.8311105e-07 1.3331671e-25 4.8951684e-44)
(0.00031686405 0.00014419089 1.1964887e-25 0.00022771314 -4.2628705e-25 6.8162864e-45)
(0.00025443167 0.00010228243 -8.1710442e-25 0.00018064959 2.261191e-24 2.3000371e-43)
(0.00021158522 8.7299419e-05 0 0.00014284353 0 0)
(0.00017904297 7.0800861e-05 0 0.00011937805 0 0)
(0.0001542004 5.679932e-05 -1.7958368e-24 9.9303251e-05 -2.9964438e-24 1.1077182e-43)
(0.00013225776 4.3108045e-05 1.3084884e-24 8.2014442e-05 2.8330481e-24 2.5114646e-43)
(0.00011446628 3.1270909e-05 -3.0539238e-24 6.5017545e-05 -7.1736526e-24 8.7918787e-43)
(9.9382484e-05 2.0981642e-05 2.9574927e-24 4.9302495e-05 8.5019218e-24 1.5031357e-42)
(8.7526112e-05 1.2882218e-05 1.5738028e-25 3.4429345e-05 6.3441355e-25 1.2054934e-44)
(7.82021e-05 6.7114285e-06 -1.0347723e-27 2.1884497e-05 3.2231129e-27 4.5920147e-48)
(7.1480504e-05 2.6702502e-06 -1.9594266e-25 1.1232752e-05 5.6009723e-24 2.9162861e-42)
(6.7288789e-05 2.0165267e-07 1.5063006e-24 4.4114831e-06 -3.8853523e-24 3.6219994e-42)
(6.5470278e-05 -7.1785705e-08 -5.8274938e-24 3.6583889e-07 2.1848795e-24 1.3970372e-41)
(0.00035422843 0.00015317836 7.0636006e-25 0.00029523385 1.7314698e-23 2.9008111e-42)
(0.00029361764 0.00010536092 4.8152564e-25 0.00022777156 -3.4433069e-25 7.2719883e-45)
(0.00023253112 9.0955421e-05 -3.8832677e-24 0.00017261698 -1.6274726e-24 3.6713178e-43)
(0.00019379314 7.5199985e-05 2.6361932e-24 0.00014277283 2.5393037e-24 2.3799571e-43)
(0.0001656504 6.1404531e-05 -1.9380672e-24 0.00011964142 -3.105877e-24 1.5813982e-43)
(0.000142221 4.7569495e-05 2.0456256e-25 0.00010095577 4.1321009e-25 2.3692453e-44)
(0.00012328351 3.5179006e-05 1.1015827e-24 8.2839395e-05 2.8778708e-24 1.0233399e-43)
(0.00010719082 2.400636e-05 -3.927604e-27 6.5837253e-05 -1.3681121e-26 1.8863558e-46)
(9.4432646e-05 1.4999772e-05 1.6161022e-24 4.9488878e-05 8.5443675e-24 1.5144372e-42)
(8.4136327e-05 7.9981848e-06 4.051532e-25 3.4406621e-05 6.628886e-24 1.3238535e-42)
(7.6427395e-05 3.1445851e-06 -1.4130667e-25 2.1645012e-05 2.1061254e-24 2.1217295e-43)
(7.0803684e-05 3.1052762e-07 -1.368335e-24 1.1012208e-05 4.2442136e-24 1.7057678e-42)
(6.7647323e-05 -1.1117308e-06 -1.5384339e-24 4.2880187e-06 1.813314e-24 8.0588428e-43)
(6.6572307e-05 -3.853163e-07 2.3622269e-24 3.4695194e-07 -5.8861499e-25 1.0850794e-42)
(0.00040660267 0.00015972992 -1.699545e-23 0.00039372635 -6.1458113e-23 1.3663253e-41)
(0.00036041088 0.00010569864 2.4149812e-23 0.00029989387 -1.9628952e-23 9.3277663e-42)
(0.0002658691 9.2554218e-05 -1.332812e-24 0.00021347674 -4.3149802e-24 1.0877397e-43)
(0.00021554426 7.8724275e-05 -1.6244918e-25 0.00017210636 3.6577774e-25 6.9018039e-45)
(0.00018074606 6.5565202e-05 2.8216005e-27 0.00014322901 -2.1719794e-25 2.5399639e-45)
(0.00015389744 5.1588281e-05 -2.4713382e-25 0.00012184516 -9.6903698e-26 5.3356726e-44)
(0.0001332888 3.8889903e-05 1.0650883e-24 0.00010222309 3.1265557e-24 9.8023724e-44)
(0.00011608365 2.6991509e-05 -9.4865197e-25 8.4202632e-05 -3.8195168e-24 1.7704068e-43)
(0.00010233982 1.7033315e-05 4.9519987e-26 6.6343517e-05 5.9865518e-26 7.965767e-45)
(9.1219934e-05 9.0126388e-06 -1.0725034e-26 4.967527e-05 -8.4394897e-25 1.5414595e-44)
(8.2587803e-05 3.410769e-06 1.3726745e-26 3.416315e-05 -1.6114912e-25 7.8530378e-46)
(7.6017445e-05 -2.4420776e-07 2.7467295e-25 2.1309675e-05 -4.4914242e-25 1.9630166e-44)
(7.1370443e-05 -1.8045407e-06 3.1840727e-24 1.0711552e-05 -5.7125425e-24 3.219505e-42)
(6.8906234e-05 -2.2813708e-06 -2.1094365e-24 4.1375709e-06 1.8025188e-24 8.4201204e-43)
(6.841127e-05 -6.4114902e-07 2.3111064e-24 3.2647379e-07 -4.3929377e-25 6.5541528e-43)
(0.00047979614 0.00016185788 1.7231185e-23 0.00053896774 -4.7174058e-23 1.0630867e-41)
(0.00046739303 0.0001004832 -3.3511402e-23 0.00041066173 6.8809391e-24 5.275512e-42)
(0.00032264093 9.1054843e-05 9.503015e-24 0.00027559692 -3.8541632e-24 1.1881142e-42)
(0.0002502302 8.0989605e-05 -6.3675655e-24 0.0002125969 -2.0932965e-24 6.767672e-43)
(0.00020298354 6.915994e-05 3.4510925e-24 0.00017282158 3.3439901e-24 3.2811829e-43)
(0.00016925158 5.5312326e-05 -4.8008511e-24 0.00014606188 -1.1009041e-23 9.9563652e-43)
(0.0001450683 4.229718e-05 2.8899475e-24 0.00012372682 7.8588053e-24 7.7504015e-43)
(0.00012618955 2.9847287e-05 -4.0034012e-26 0.00010429416 -8.3364196e-26 1.3384397e-45)
(0.00011131496 1.9062579e-05 -3.6817322e-25 8.5199702e-05 -2.8672248e-24 9.9498894e-44)
(9.9308509e-05 9.9610302e-06 2.4327528e-25 6.6911639e-05 2.2303773e-26 6.8239386e-44)
(8.9939061e-05 3.3399184e-06 2.1358159e-24 4.9552885e-05 -2.1500212e-23 9.6176262e-42)
(8.2508324e-05 -1.0041632e-06 -9.741645e-25 3.3782036e-05 5.1184714e-24 8.5557519e-43)
(7.6933852e-05 -3.3082138e-06 -1.1552218e-24 2.0814369e-05 2.6094497e-24 3.4505237e-43)
(7.289522e-05 -3.6980945e-06 -7.5101327e-25 1.0345476e-05 8.034011e-25 6.7253667e-44)
(7.0940416e-05 -3.2703284e-06 -2.6935017e-25 3.9570055e-06 8.1168475e-26 5.0814159e-45)
(7.0771202e-05 -8.4235749e-07 -3.1312743e-24 3.0482036e-07 4.7056573e-25 8.2120125e-43)
(0.00057889717 0.00015300243 0 0.00074861379 0 0)
(0.00063002641 8.6493599e-05 -6.5613847e-23 0.00058110368 2.9174859e-23 1.4173021e-41)
(0.00041649492 8.4207101e-05 3.1210436e-24 0.0003728159 1.3204786e-23 5.3329478e-43)
(0.0003089879 8.1284474e-05 0 0.00027423483 0 0)
(0.00023840112 7.1941141e-05 0 0.00021409393 0 0)
(0.00019167357 5.8619102e-05 0 0.00017651007 0 0)
(0.0001605911 4.5541413e-05 -8.3506624e-26 0.00014871024 3.7197565e-25 7.1992069e-45)
(0.00013815789 3.2532678e-05 1.6415924e-24 0.00012669822 8.3207921e-24 5.6899465e-43)
(0.00012152092 2.1024875e-05 -6.067167e-25 0.00010595976 -1.0836851e-24 2.2536076e-43)
(0.00010846808 1.0909088e-05 9.6089002e-27 8.6363142e-05 8.4633678e-24 8.5170115e-43)
(9.8299677e-05 3.187105e-06 -1.4524395e-25 6.7087304e-05 7.3437339e-26 9.3489691e-45)
(9.0264336e-05 -2.201393e-06 -1.1654103e-24 4.9253777e-05 4.6783211e-24 4.6075653e-43)
(8.3856537e-05 -5.0334515e-06 1.4366374e-26 3.3146753e-05 -2.4784692e-25 3.9742909e-45)
(7.8902546e-05 -6.0864963e-06 1.901913e-24 2.0187555e-05 -2.9523903e-24 4.5890267e-43)
(7.5248917e-05 -5.3035262e-06 6.9214285e-25 9.9047878e-06 -5.3210702e-25 3.2468295e-44)
(7.3528931e-05 -4.0843476e-06 1.6362822e-24 3.7514929e-06 -8.4444717e-25 2.0888496e-43)
(7.3512971e-05 -9.8607227e-07 0 2.8232196e-07 0 0)
(0.00070382618 0.00012963542 5.4739611e-23 0.0010371566 -1.484326e-22 3.8191913e-41)
(0.00086957015 5.9359066e-05 1.8535696e-22 0.00084243313 -3.1552055e-23 5.7410758e-41)
(0.00056144175 6.82114e-05 -1.1801867e-22 0.00052564611 2.825287e-23 4.5059409e-41)
(0.00040807188 7.8414267e-05 -2.982127e-23 0.00037356829 1.3143278e-23 5.849167e-42)
(0.00029835313 7.3247453e-05 -1.4636125e-23 0.00027701767 -4.4315516e-25 2.2201883e-42)
(0.00022719775 6.1238031e-05 0 0.0002189611 0 0)
(0.00018322208 4.8503472e-05 -3.8533504e-24 0.00018017211 -1.892154e-24 7.1371741e-43)
(0.00015389664 3.5175156e-05 5.503532e-25 0.00015274622 -4.9784748e-25 6.2487171e-44)
(0.00013364872 2.2923679e-05 2.1573092e-24 0.00012924104 1.410045e-23 1.929779e-42)
(0.00011888442 1.1836693e-05 -9.155097e-25 0.00010795396 -1.2275365e-24 3.7117286e-43)
(0.00010774006 3.0091618e-06 6.1769502e-25 8.7059844e-05 -5.1234805e-24 3.1063707e-43)
(9.9057816e-05 -3.5356682e-06 -2.9254161e-25 6.7061316e-05 2.3026208e-25 1.6438381e-44)
(9.2140543e-05 -7.3167992e-06 -3.3058511e-24 4.858383e-05 9.4915768e-24 1.9652921e-42)
(8.6385694e-05 -8.7404216e-06 7.1816991e-24 3.2300827e-05 -1.2504315e-23 5.130025e-42)
(8.1784579e-05 -8.4672468e-06 2.3357835e-24 1.9405887e-05 -2.3174986e-24 3.1551495e-43)
(7.8209856e-05 -6.6327582e-06 1.2153622e-23 9.4018606e-06 -9.4040057e-24 1.0373186e-41)
(7.6527699e-05 -4.7052658e-06 5.2309038e-24 3.5233713e-06 -2.2045245e-24 1.5308258e-42)
(7.6468237e-05 -1.075446e-06 5.0420355e-24 2.5942525e-07 -5.329749e-25 1.2992048e-42)
(0.00086436258 9.752488e-05 -1.0906242e-23 0.0014188186 1.4115488e-23 4.3761764e-43)
(0.0011901732 1.4348027e-05 1.547197e-22 0.0012264565 -3.3358356e-23 2.6688449e-41)
(0.000781373 3.7893449e-05 2.7467271e-23 0.00076589424 1.1413838e-23 1.5376587e-42)
(0.00056244298 6.8471198e-05 -5.7766793e-23 0.00053233984 5.3989505e-24 9.7468604e-42)
(0.00040179787 7.2370885e-05 3.566055e-24 0.00038017376 -5.0668305e-25 6.8032563e-44)
(0.00028698596 6.2478539e-05 -3.5515663e-24 0.00028345765 -1.3943645e-23 8.2667939e-43)
(0.00021912492 5.0890954e-05 7.6376669e-24 0.00022401239 -1.446343e-23 3.4953455e-42)
(0.00017679831 3.7671811e-05 7.6799358e-24 0.00018548617 4.8575695e-24 2.7874179e-42)
(0.00014954703 2.4899661e-05 1.4944873e-24 0.00015636034 2.3405189e-24 2.5133185e-43)
(0.00013126978 1.2783503e-05 4.1825112e-25 0.00013232742 -1.0700682e-23 9.0151042e-43)
(0.0001184569 2.8155892e-06 2.6737247e-25 0.00010944223 2.0202294e-25 2.0396467e-44)
(0.00010896084 -4.9657657e-06 2.8706336e-24 8.7558315e-05 -1.2574655e-23 1.8719864e-42)
(0.00010151477 -9.8266638e-06 -9.9949294e-25 6.6538586e-05 4.3586218e-24 3.5729451e-43)
(9.5366074e-05 -1.210318e-05 -5.797095e-25 4.7606117e-05 7.2923536e-25 1.7975842e-44)
(8.9937598e-05 -1.1955062e-05 -1.1254789e-24 3.1194648e-05 1.1213683e-24 5.5620376e-44)
(8.5361304e-05 -1.0468854e-05 -2.1280336e-24 1.849309e-05 2.1339638e-24 2.700545e-43)
(8.1622905e-05 -7.6489371e-06 4.6541154e-24 8.8414539e-06 -3.0295897e-24 1.1651766e-42)
(7.9761244e-05 -5.1387054e-06 -5.2657513e-26 3.2783971e-06 5.576986e-26 2.3143379e-45)
(7.9512077e-05 -1.1117626e-06 4.9942601e-24 2.3657583e-07 -4.6365083e-25 1.1132332e-42)
(0.0010531398 3.7146928e-05 -1.1975201e-22 0.0019032925 1.0673118e-22 2.9361398e-41)
(0.0015894167 -3.969247e-05 -2.8012875e-22 0.0017641247 2.7011498e-23 5.953955e-41)
(0.0010958416 -8.4516767e-06 6.3122501e-22 0.0011323716 -1.329111e-23 4.5354091e-40)
(0.00079570244 4.5392274e-05 4.6387909e-23 0.00078444504 -1.792491e-23 4.1584615e-42)
(0.00056753106 6.5505574e-05 -1.7403481e-23 0.00054695298 -1.2980036e-23 1.1051742e-42)
(0.00039070587 6.1522852e-05 -1.8191373e-24 0.00038936238 -9.2175626e-24 2.6747003e-43)
(0.00027955867 5.2061644e-05 -2.9037873e-24 0.00029048407 4.4398202e-25 9.1275746e-44)
(0.0002131547 3.9752202e-05 -3.8733932e-24 0.00023085216 -1.2819944e-23 9.0852576e-43)
(0.00017262725 2.6876841e-05 1.1776872e-24 0.00019039835 8.822452e-25 6.6249526e-44)
(0.00014739739 1.3920359e-05 2.8457724e-24 0.00016080331 1.4563411e-23 2.3670173e-42)
(0.00013118288 2.6917333e-06 2.3017128e-24 0.00013488958 -1.9451207e-23 2.9099537e-42)
(0.00012018051 -6.4466478e-06 -1.0091888e-24 0.00011077629 2.9070548e-24 9.8481504e-44)
(0.00011204723 -1.2542961e-05 -2.2394207e-24 8.7429644e-05 5.8638147e-24 4.1900512e-43)
(0.00010553148 -1.5818839e-05 2.42121e-25 6.5601236e-05 -4.3053647e-25 3.1406424e-45)
(9.9752135e-05 -1.6313626e-05 -7.5739867e-25 4.6228958e-05 6.2791841e-25 2.3114774e-44)
(9.430531e-05 -1.4703079e-05 -7.9252737e-24 2.9863345e-05 9.3474985e-24 3.2071075e-42)
(8.9455949e-05 -1.2022116e-05 1.3090048e-24 1.7454927e-05 -1.5108021e-24 1.7912095e-43)
(8.5305339e-05 -8.3620479e-06 -8.8737891e-24 8.237645e-06 4.841531e-24 3.2321785e-42)
(8.3098024e-05 -5.3831309e-06 -2.3629668e-24 3.0218238e-06 7.4072439e-25 2.0849655e-43)
(8.2521065e-05 -1.0988358e-06 -5.522253e-24 2.1421291e-07 4.480763e-25 1.1848823e-42)
(0.0011936688 -9.1693984e-05 -1.4826635e-23 0.0024740335 4.7582863e-23 1.1990665e-42)
(0.0020691819 -9.6952066e-05 -6.0493887e-22 0.0024899439 5.1123049e-23 2.0275268e-40)
(0.0015031823 -6.0590003e-05 -6.9250744e-23 0.0016668738 1.0129044e-22 1.0052192e-41)
(0.001134841 5.9311856e-06 -1.4357995e-22 0.0011735822 -1.0133912e-24 2.17984e-41)
(0.00081820664 4.6183667e-05 1.0066841e-23 0.00081370651 -3.1935409e-23 1.6651012e-42)
(0.000561298 5.5328865e-05 2.9340714e-23 0.00056197176 1.9802627e-24 2.284074e-42)
(0.00038465438 5.0971861e-05 -4.2521215e-23 0.00039884752 4.892889e-24 9.3348978e-42)
(0.00027432862 4.0884396e-05 -4.1739412e-23 0.00029928651 3.968356e-24 1.8268139e-41)
(0.0002092608 2.8643872e-05 2.9130355e-25 0.00023731968 2.0576272e-23 1.962534e-42)
(0.00017068213 1.5209086e-05 0 0.00019649333 0 0)
(0.00014760525 2.8281568e-06 -1.6134604e-24 0.00016476226 1.4625804e-23 1.3572446e-42)
(0.00013342835 -7.8457926e-06 -1.3713714e-24 0.00013739089 -9.0072843e-25 2.5413853e-43)
(0.00012394702 -1.5391113e-05 3.9346256e-24 0.00011136261 -1.391089e-23 1.8527521e-42)
(0.00011694402 -1.9899406e-05 -1.8783262e-24 8.6775897e-05 6.9151114e-24 7.4509338e-43)
(0.00011087984 -2.1179159e-05 3.5771934e-24 6.4098195e-05 -5.5438019e-24 5.1858623e-43)
(0.0001051249 -1.9985333e-05 -7.3255845e-24 4.4495727e-05 9.4626918e-24 2.1902052e-42)
(9.9282102e-05 -1.6870739e-05 -1.6631541e-24 2.8310572e-05 1.0020073e-24 7.1717729e-44)
(9.3880127e-05 -1.3141079e-05 2.8234249e-24 1.6318264e-05 -2.2473567e-24 3.6472795e-43)
(8.9112614e-05 -8.7636333e-06 -5.3998027e-24 7.6032944e-06 2.70132e-24 1.1280199e-42)
(8.6405392e-05 -5.4483283e-06 -6.4098171e-25 2.7598247e-06 1.5083116e-25 1.0064756e-44)
(8.5399521e-05 -1.0405959e-06 -5.3186077e-24 1.9275626e-07 3.8587469e-25 1.0161581e-42)
(0.0013125706 -0.00030609287 2.2985354e-22 0.0030975177 5.2317869e-24 7.2328405e-41)
(0.0025290725 -0.00021279941 -6.9964712e-22 0.0034065601 1.8558837e-23 2.1619084e-40)
(0.0020184116 -0.00010585338 -6.748952e-22 0.0024172053 -4.7892591e-23 2.5417816e-40)
(0.0015815088 -4.0433602e-05 4.2485299e-22 0.0017500088 7.7768316e-23 1.3360809e-40)
(0.0011862649 8.0119262e-06 1.7699119e-22 0.0012293214 -3.4445144e-24 3.0955224e-41)
(0.00082280902 3.6669826e-05 -8.8819472e-24 0.00083934507 -2.2312843e-23 7.9806825e-43)
(0.00056150308 4.5767937e-05 0 0.00057667466 0 0)
(0.00038046811 3.9926126e-05 -3.3397215e-25 0.0004094514 -3.1660789e-23 2.8784885e-42)
(0.00027083876 2.9768745e-05 1.1462812e-23 0.0003077236 -1.0953326e-23 1.9495243e-42)
(0.00020752905 1.6497573e-05 8.7484557e-24 0.00024538162 2.4984002e-23 4.4458029e-42)
(0.0001711301 3.2237692e-06 -2.1000282e-24 0.00020218678 7.7018059e-24 3.7958411e-43)
(0.00015033367 -8.9606313e-06 -7.446119e-25 0.00016881986 -2.0251577e-24 1.069855e-43)
(0.0001379032 -1.8211893e-05 3.2071387e-25 0.0001390521 4.6877259e-26 8.7527791e-45)
(0.00012979984 -2.4249072e-05 -2.7420164e-24 0.00011132312 6.0099846e-24 3.4553947e-43)
(0.00012338754 -2.660685e-05 2.9888701e-24 8.536098e-05 -6.3374899e-24 5.3028363e-43)
(0.00011743759 -2.5957153e-05 -3.2473717e-24 6.2076308e-05 5.1988286e-24 4.9556894e-43)
(0.00011123575 -2.2941607e-05 1.1129131e-24 4.2399764e-05 -1.2000818e-24 3.7449111e-44)
(0.00010467843 -1.847446e-05 -6.6410944e-24 2.657688e-05 5.6663134e-24 1.3625969e-42)
(9.84636e-05 -1.3799511e-05 -2.0348484e-24 1.510747e-05 9.6296576e-25 8.4098383e-44)
(9.2899199e-05 -8.8696295e-06 -3.8038445e-25 6.9537918e-06 1.1490624e-25 2.8684857e-45)
(8.9579539e-05 -5.3449154e-06 -3.1184434e-24 2.4983698e-06 8.1577653e-25 3.2513593e-43)
(8.8065467e-05 -9.4203009e-07 0 1.7257714e-07 0 0)
(0.0014378695 -0.00058546038 5.5902732e-23 0.0037536605 9.8443782e-23 1.1845853e-41)
(0.0028508397 -0.00050452041 4.6507093e-22 0.0044660065 -7.5169096e-24 8.6254943e-41)
(0.0025720927 -0.00017517749 3.3709414e-24 0.0034170255 -3.6478301e-23 4.3124789e-43)
(0.0021453964 -7.1952277e-05 6.7872162e-22 0.0025656015 1.8283142e-23 2.3655075e-40)
(0.0016794393 -4.2267255e-05 2.1008014e-22 0.0018514739 -5.3022527e-23 3.1040158e-41)
(0.0012115969 -4.7798595e-06 -8.31784e-23 0.001275333 -6.108667e-24 6.6818445e-42)
(0.00083730219 2.8730712e-05 5.0173526e-24 0.00086317763 6.684247e-23 6.0147854e-42)
(0.00056207574 3.6037828e-05 -7.4095985e-23 0.00059124001 -9.0662002e-24 1.4507862e-41)
(0.0003772869 2.9257487e-05 -9.1347138e-24 0.00041970635 -1.1526012e-23 7.2683126e-43)
(0.00026930787 1.7439465e-05 -2.2043604e-24 0.00031817017 2.8007263e-25 5.0912324e-44)
(0.00020814544 3.7771014e-06 3.5371377e-25 0.00025315497 -1.4213392e-25 2.4574954e-45)
(0.00017426399 -9.7511592e-06 4.1163035e-24 0.00020819527 2.7663432e-24 7.8671208e-43)
(0.00015549415 -2.0784219e-05 5.9392893e-25 0.00017197499 -2.043465e-24 2.5595772e-44)
(0.00014474944 -2.8684319e-05 -7.5152672e-24 0.00014000927 1.0511202e-23 1.5249334e-42)
(0.00013744224 -3.2486126e-05 -8.543267e-24 0.00011030201 1.4766366e-23 2.1548191e-42)
(0.00013131799 -3.2719662e-05 -7.9606984e-24 8.3228145e-05 1.1798331e-23 1.8141764e-42)
(0.00012489927 -2.9895547e-05 1.5420187e-24 5.9508191e-05 -1.3158784e-24 4.3698286e-44)
(0.00011790185 -2.5196557e-05 1.2650055e-23 3.9996072e-05 -1.2133249e-23 4.1327826e-42)
(0.00011028641 -1.9458233e-05 2.4603839e-25 2.469932e-05 -3.0923861e-25 6.6023269e-45)
(0.00010304553 -1.4018943e-05 -3.8685736e-24 1.3853061e-05 2.2045446e-24 4.1348551e-43)
(9.6548775e-05 -8.6935595e-06 0 6.3042129e-06 0 0)
(9.2530833e-05 -5.0881333e-06 6.9508197e-24 2.2432424e-06 -1.6540217e-24 1.5365018e-42)
(9.045325e-05 -8.0815489e-07 1.6326438e-25 1.5399342e-07 -6.1551388e-27 4.7013481e-46)
(0.0016200529 -0.00089726375 -4.6860246e-22 0.0044203733 5.3405009e-23 3.6035419e-40)
(0.0031251558 -0.00088421994 1.3830031e-21 0.005633631 1.9414054e-22 7.9233882e-40)
(0.0029455058 -0.00037115358 -1.1688869e-21 0.0046198386 -1.7828527e-22 5.4272221e-40)
(0.0028042029 -9.9793795e-05 -4.0350181e-22 0.0036762718 -1.5582333e-22 7.0843975e-41)
(0.0022955969 -7.9025477e-05 6.2359855e-22 0.0027383878 1.2182133e-22 1.9295972e-40)
(0.0017467864 -6.5674534e-05 0 0.0019340291 0 0)
(0.0012504283 -1.3720411e-05 8.2417809e-25 0.0013155249 2.4321473e-23 5.1037777e-43)
(0.00085136963 2.2123554e-05 -4.0322845e-23 0.00088481514 -3.7744762e-23 4.0775702e-42)
(0.00056105717 2.6381731e-05 -5.262086e-23 0.00060500121 1.8282361e-24 7.5690896e-42)
(0.00037569892 1.7254129e-05 -4.3766375e-23 0.00043277196 2.0652208e-23 1.1539333e-41)
(0.0002699789 4.2067732e-06 4.2867566e-24 0.0003283933 1.9262269e-23 1.5154334e-42)
(0.00021157198 -1.026554e-05 3.1712921e-24 0.00026148544 9.3568934e-24 7.6167687e-43)
(0.00018001199 -2.3023367e-05 1.7850109e-25 0.00021327154 -1.1874673e-23 9.6452205e-43)
(0.00016331164 -3.2965365e-05 -5.5231685e-24 0.00017437265 1.5414353e-23 1.4529897e-42)
(0.00015366164 -3.8632798e-05 9.4833473e-24 0.00013974977 -2.0466311e-23 3.2392009e-42)
(0.0001468975 -4.0164709e-05 1.869996e-23 0.00010832749 -2.794631e-23 7.8931218e-42)
(0.00014036905 -3.7888117e-05 6.770349e-25 8.031617e-05 2.0252637e-24 3.4812514e-43)
(0.00013311028 -3.300244e-05 5.3914711e-24 5.6456406e-05 -5.6468014e-24 6.3248426e-43)
(0.00012486379 -2.6650127e-05 -1.414666e-23 3.7337285e-05 1.277332e-23 5.0947255e-42)
(0.00011593349 -1.9847429e-05 2.3157429e-24 2.2726092e-05 -2.3234826e-24 3.711803e-43)
(0.00010748601 -1.380963e-05 8.0980744e-24 1.2585751e-05 -4.2970677e-24 1.7916585e-42)
(9.9957688e-05 -8.259329e-06 -6.6344122e-24 5.6691689e-06 2.503275e-24 1.4301872e-42)
(9.5191674e-05 -4.6960124e-06 4.043027e-24 1.9995132e-06 -9.4336823e-25 6.0251724e-43)
(9.2511748e-05 -6.435724e-07 1.3390155e-25 1.372577e-07 -4.3330773e-27 2.9448234e-46)
(0.0019137404 -0.0012238876 7.313009e-23 0.0050717765 -3.1020414e-22 2.3907593e-41)
(0.0034171748 -0.0012659943 1.1522256e-21 0.0068772281 6.7297025e-23 5.672238e-40)
(0.0032044087 -0.00069779176 2.1790968e-22 0.0059773926 -3.3334415e-22 3.4319182e-41)
(0.0032935308 -0.00023938937 2.7107533e-21 0.0050514129 3.2116714e-22 2.5734209e-39)
(0.0030315054 -0.00010012356 -5.4774295e-22 0.0039571942 -1.9735461e-22 1.1984653e-40)
(0.0024152069 -0.00011886985 6.6756968e-22 0.0028830776 1.2332166e-22 2.1236833e-40)
(0.0018304405 -8.3775065e-05 -2.4347932e-25 0.0020022884 3.6205829e-23 7.2901854e-43)
(0.0012874577 -1.701824e-05 2.5361313e-22 0.0013497813 1.7730201e-23 5.9294239e-41)
(0.00086007339 1.6255585e-05 -1.7227485e-23 0.00090479297 -3.827905e-23 2.1906342e-42)
(0.00055974955 1.5000969e-05 -2.6031529e-23 0.00062149494 -6.3358479e-24 1.9485584e-42)
(0.00037605352 3.885786e-06 4.1397386e-25 0.00044584001 2.652263e-23 1.7419834e-42)
(0.00027351033 -1.0715693e-05 -1.6767848e-23 0.00033937937 -8.4547926e-24 3.5332487e-42)
(0.00021774206 -2.4916922e-05 -2.1380291e-24 0.00026887356 1.3129865e-23 6.997065e-43)
(0.00018869591 -3.6982208e-05 4.625305e-25 0.00021757909 1.479344e-25 7.8382784e-45)
(0.00017349332 -4.4809771e-05 1.0243307e-23 0.00017531851 -1.7968351e-23 2.1455375e-42)
(0.00016475078 -4.812295e-05 1.0757555e-24 0.0001382792 -2.3838438e-24 4.9884465e-44)
(0.00015774349 -4.6825434e-05 4.8463368e-26 0.00010527972 5.6600773e-25 1.3635089e-44)
(0.00015042663 -4.2103917e-05 9.3880213e-24 7.6685948e-05 -1.0587247e-23 1.6351871e-42)
(0.00014174377 -3.5116095e-05 0 5.2986487e-05 0 0)
(0.00013193699 -2.7326582e-05 1.9395814e-24 3.44933e-05 -1.3132642e-24 5.8621139e-44)
(0.00012144079 -1.9639141e-05 5.1134042e-25 2.0709166e-05 -2.7910998e-25 4.4904528e-45)
(0.00011166169 -1.3205317e-05 -8.7447477e-25 1.1335362e-05 3.7138945e-25 1.4918797e-44)
(0.00010304593 -7.5938055e-06 -3.264098e-25 5.0617479e-06 5.8276591e-27 4.0256652e-45)
(9.7514423e-05 -4.1878834e-06 -6.2894562e-24 1.7714938e-06 1.2720156e-24 1.2530226e-42)
(9.421365e-05 -4.5512486e-07 -2.7673256e-24 1.2253761e-07 1.4607339e-25 2.9255786e-43)
(0.0023442177 -0.0015387598 1.2995529e-22 0.0056899738 1.4394565e-22 1.3357634e-40)
(0.0037280399 -0.0016662519 -5.9964025e-22 0.0081628098 5.6713107e-23 1.7443868e-40)
(0.003495372 -0.0010570707 -4.0379122e-22 0.0074590344 4.721369e-23 6.6450544e-41)
(0.0036104258 -0.00053440884 -3.4509615e-22 0.0066176453 -3.0444106e-23 4.1567529e-41)
(0.0036551336 -0.00020179452 -2.2447044e-21 0.0055027856 -3.245078e-22 1.6144666e-39)
(0.0032185147 -0.00014650747 -1.2943624e-22 0.0041962758 1.2438945e-22 1.0132392e-41)
(0.0025638217 -0.00015430202 -1.8164782e-24 0.0030022786 5.8734467e-23 1.2653415e-42)
(0.0019098887 -9.0905353e-05 -2.5857175e-23 0.002059338 -5.0887837e-24 4.1785816e-43)
(0.0013147725 -1.6571773e-05 -1.8538902e-22 0.001380536 -1.3892607e-23 3.166892e-41)
(0.00086411492 8.1855702e-06 -6.6597743e-24 0.00092698404 4.522997e-23 2.5823717e-42)
(0.0005591719 1.6402538e-06 -2.6658026e-23 0.00063723725 -1.7932256e-23 2.6330481e-42)
(0.00037925211 -1.1604904e-05 4.3026576e-24 0.00045984976 -4.8956498e-25 1.0472753e-43)
(0.00027982027 -2.6577572e-05 7.9708499e-24 0.0003493881 3.8578235e-24 8.4472497e-43)
(0.00022705671 -4.0647002e-05 2.4788893e-24 0.0002755225 -6.3167711e-24 1.6453012e-43)
(0.00020006531 -5.0878062e-05 2.1682646e-24 0.00022019473 -1.0995153e-25 1.237542e-43)
(0.00018625526 -5.6375808e-05 -1.7519965e-23 0.00017477399 2.5711781e-23 4.5477497e-42)
(0.00017757119 -5.6577417e-05 -2.8299868e-23 0.00013538459 3.0497183e-23 9.6398748e-42)
(0.00016991895 -5.243323e-05 -1.4687679e-23 0.00010121645 1.7701588e-23 3.470424e-42)
(0.00016108133 -4.512559e-05 -2.0727644e-23 7.2413537e-05 2.0756135e-23 6.75861e-42)
(0.00015061281 -3.625003e-05 -4.6973649e-25 4.9190153e-05 2.6307198e-25 2.3987754e-45)
(0.00013888698 -2.719915e-05 1.9142841e-23 3.1544604e-05 -1.2747635e-23 6.0769304e-42)